ITEM: TIMESTEP
0
ITEM: NUMBER OF ATOMS
10725
ITEM: BOX BOUNDS pp pp pp
-5.8359999999999999e+01 5.8359999999999999e+01
-5.8359999999999999e+01 5.8359999999999999e+01
-5.0000000000000000e-01 5.0000000000000000e-01
ITEM: ATOMS id type xs ys zs c_002[1] c_002[2]
1 1 0.0735024 0.12429 0.5 -0.673729 0.66512
2 1 0.0554794 0.117476 0.5 -0.762923 0.5156
3 1 0.0897493 0.0257068 0.5 -0.716752 0.59414
4 1 0.0409574 0.150349 0.5 -0.797234 -0.167129
5 1 0.0914914 0.123422 0.5 -0.756549 0.559431
6 1 0.103215 0.15923 0.5 -0.96593 -0.0915064
7 1 0.0649589 0.209891 0.5 -0.702425 0.599736
8 1 0.0861438 0.150363 0.5 -0.674008 0.297757
9 1 0.0788685 0.0877672 0.5 -0.813787 0.521687
10 1 0.000844584 0.0339773 0.5 -0.413564 0.754048
11 1 0.0361654 0.0206062 0.5 -0.628713 0.692352
12 1 0.0728342 0.204285 0.5 -0.531121 0.618402
13 1 0.0371671 0.0303272 0.5 -0.59849 0.53988
14 1 0.0707402 0.093576 0.5 -0.779517 0.585127
15 1 0.0414518 0.0722474 0.5 -0.584184 0.732266
16 1 0.0552119 0.216604 0.5 -0.780548 0.489978
17 1 0.998027 0.0140826 0.5 -0.748045 0.600258
18 1 0.077363 0.00157212 0.5 -0.512913 0.825065
19 1 0.035181 0.100615 0.5 -0.295457 0.217859
20 1 0.00700978 0.00759772 0.5 -0.797218 0.393725
21 1 0.109538 0.132983 0.5 -0.402294 0.617286
22 1 0.0952022 0.153994 0.5 -0.843182 0.153129
23 1 0.10004 0.0388114 0.5 -0.599963 0.779795
24 1 0.030652 0.135195 0.5 -0.657744 0.71249
25 1 0.094623 0.0644397 0.5 -0.813094 0.382611
26 1 0.0392647 0.161196 0.5 -0.562057 -0.0148923
27 1 0.0434482 0.0928344 0.5 -0.739587 0.405307
28 1 0.0853025 0.228889 0.5 -0.88988 0.336958
29 1 0.0923539 0.212889 0.5 -0.626534 0.686141
30 1 0.0401773 0.993833 0.5 -0.749127 0.551457
31 1 0.0651553 0.132126 0.5 -0.615569 0.634069
32 1 0.0931575 0.133741 0.5 -0.774163 0.433395
33 1 0.0759647 0.167377 0.5 -0.564984 0.29245
34 1 0.0592494 0.166074 0.5 -0.272013 -0.116829
35 1 0.108313 0.111706 0.5 -0.716098 0.567411
36 1 0.0964679 0.186675 0.5 -0.723011 0.490883
37 1 0.0491603 0.997587 0.5 -0.758094 0.3424
38 1 0.0288388 0.125566 0.5 -0.691907 0.570124
39 1 0.018773 0.208905 0.5 -0.62231 0.627096
40 1 0.0718266 0.104989 0.5 -0.7979 0.485095
41 1 0.0981541 0.106833 0.5 -0.757163 0.629291
42 1 0.0767475 0.223598 0.5 -0.536862 0.402184
43 1 0.100726 0.217501 0.5 -0.670138 0.566053
44 1 0.0417096 0.0039316 0.5 -0.449399 0.823314
45 1 0.032314 0.16797 0.5 -0.722822 0.202323
46 1 0.0117228 0.0609468 0.5 -0.705657 0.324555
47 1 0.0230983 0.160869 0.5 -0.557378 0.474473
48 1 0.0938267 0.144396 0.5 -0.845932 0.474316
49 1 0.0507621 0.00781245 0.5 -0.477836 0.61919
50 1 0.995074 0.0514054 0.5 -0.909587 0.362861
51 1 0.988584 0.0884626 0.5 -0.727623 0.377781
52 1 0.0666705 0.151502 0.5 -0.435922 0.273219
53 1 0.0715768 0.0173779 0.5 -0.694234 0.654819
54 1 0.0665067 0.0541166 0.5 -0.683109 0.653151
55 1 0.111775 0.153847 0.5 -0.782054 0.405405
56 1 0.119113 0.224472 0.5 -0.780617 0.587308
57 1 0.0672613 0.141935 0.5 -0.619624 0.561154
58 1 0.0165245 0.0127575 0.5 -0.867976 0.196026
59 1 0.0287798 0.0380136 0.5 -0.652265 0.525167
60 1 0.0245418 0.181736 0.5 -0.846571 0.0381649
61 1 0.0505448 0.175856 0.5 -0.594188 0.622825
62 1 0.0638254 0.110254 0.5 -0.761699 0.536183
63 1 0.102078 0.227321 0.5 -0.678874 0.722758
64 1 0.0169001 0.121682 0.5 -0.561032 0.178346
65 1 0.0721009 0.114841 0.5 -0.747139 0.543707
66 1 0.0773848 0.186181 0.5 -0.682048 0.235295
67 1 0.0212979 0.0642764 0.5 -0.799085 0.356453
68 1 0.0591788 0.180065 0.5 -0.430215 0.600093
69 1 0.0813507 0.0310668 0.5 -0.90717 0.370788
70 1 0.0286913 0.114601 0.5 -0.692891 0.341158
71 1 0.0518967 0.252776 0.5 -0.720848 -0.120416
72 1 0.987603 0.0993014 0.5 -0.810216 0.247454
73 1 0.111088 0.142961 0.5 -0.517709 0.769182
74 1 0.0033609 0.0556217 0.5 -0.896544 0.264454
75 1 0.0684748 0.181576 0.5 -0.446852 0.520895
76 1 0.0566485 0.137798 0.5 -0.846747 0.379343
77 1 0.0628333 0.0229296 0.5 -0.835086 0.494095
78 1 0.0165889 0.0906143 0.5 -0.642936 0.511754
79 1 0.982573 0.126189 0.5 -0.557861 0.765039
80 1 0.0999638 0.117147 0.5 -0.801896 0.545828
81 1 0.0733234 0.21421 0.5 -0.549385 0.45692
82 1 0.0351483 0.198555 0.5 -0.876496 0.4091
83 1 0.0904095 0.203032 0.5 -0.356682 0.856939
84 1 0.0841877 0.139617 0.5 -0.772649 0.583788
85 1 0.0263542 0.0939253 0.5 -0.655034 0.346917
86 1 0.095301 0.086465 0.5 -0.693076 0.559559
87 1 0.0242158 0.0840018 0.5 -0.338008 0.889659
88 1 0.0391367 0.062802 0.5 -0.709428 0.519366
89 1 0.107947 0.199937 0.5 -0.379876 0.869804
90 1 0.00788013 0.195998 0.5 -0.610339 0.59612
91 1 0.0442906 0.0147075 0.5 -0.399954 0.828734
92 1 0.00488451 0.142734 0.5 -0.223566 0.635356
93 1 0.0811123 0.0213255 0.5 -0.665949 0.59591
94 1 0.979074 0.0843461 0.5 -0.895946 0.240085
95 1 0.0295404 0.215015 0.5 -0.622849 0.291763
96 1 0.0423481 0.182354 0.5 -0.759794 0.622353
97 1 0.00729135 0.173274 0.5 -0.549906 0.570339
98 1 0.00465381 0.988047 0.5 -0.560198 0.678758
99 1 0.10452 0.0906921 0.5 -0.779057 0.581418
100 1 0.117584 0.204353 0.5 -0.714861 0.655562
101 1 0.00759026 0.106959 0.5 -0.84865 0.381862
102 1 0.0269306 0.017091 0.5 -0.756889 0.575956
103 1 0.0932841 0.0550227 0.5 -0.741744 0.640443
104 1 0.0519899 0.242913 0.5 -0.428701 0.539652
105 1 0.990124 0.119526 0.5 -0.492714 0.819516
106 1 0.0156211 0.10157 0.5 -0.626631 0.34213
107 1 0.978324 0.0940906 0.5 -0.897322 0.191398
108 1 0.102704 0.169523 0.5 -0.776647 0.290867
109 1 0.0744238 0.980256 0.5 -0.739142 0.467779
110 1 0.034303 0.188895 0.5 -0.786877 0.200872
111 1 0.0881926 0.0148831 0.5 -0.634731 0.70892
112 1 0.0139211 0.146429 0.5 -0.82392 0.289381
113 1 0.0488435 0.144082 0.5 -0.846739 0.390067
114 1 0.0770823 0.235152 0.5 -0.843948 0.427409
115 1 0.0176525 0.111023 0.5 -0.606017 0.541671
116 1 0.0480821 0.132814 0.5 -0.798046 0.42922
117 1 0.00735447 0.183017 0.5 -0.528687 0.498702
118 1 0.0550301 0.107093 0.5 -0.670281 0.682533
119 1 0.0525196 0.0864861 0.5 -0.695344 0.679324
120 1 0.0844568 0.160477 0.5 -0.636084 0.324692
121 1 0.997849 0.0809443 0.5 -0.595382 0.360263
122 1 0.0863976 0.238948 0.5 -0.849026 0.465554
123 1 0.0326074 0.14534 0.5 -0.754691 0.207382
124 1 0.082131 0.118329 0.5 -0.794193 0.533414
125 1 0.988924 0.0208379 0.5 -0.627908 0.727184
126 1 0.031001 0.980012 0.5 -0.694876 0.400766
127 1 0.0697828 0.00731505 0.5 -0.629011 0.735668
128 1 0.0617862 0.0130693 0.5 -0.768499 0.562326
129 1 0.100628 0.126974 0.5 -0.719469 0.493051
130 1 0.0469574 0.223084 0.5 -0.668068 0.52999
131 1 0.0974513 0.196717 0.5 -0.388069 0.806679
132 1 0.0573824 0.98257 0.5 -0.896525 0.240879
133 1 0.0672812 0.986907 0.5 -0.708419 0.512911
134 1 0.0472791 0.036267 0.5 -0.52638 0.464258
135 1 0.040373 0.139115 0.5 -0.711281 0.584809
136 1 0.0218406 0.074387 0.5 -0.53713 0.648989
137 1 0.0135327 0.990903 0.5 -0.3896 0.86147
138 1 0.0866312 0.248798 0.5 -0.839017 0.478911
139 1 0.0538255 0.018037 0.5 -0.604246 0.541277
140 1 0.989292 0.175576 0.5 -0.261813 0.131059
141 1 0.0950304 0.243597 0.5 -0.828128 0.477621
142 1 0.0865981 0.993866 0.5 -0.36326 0.549333
143 1 0.0658591 0.220837 0.5 -0.591073 0.613565
144 1 0.0765767 0.0667753 0.5 -0.648051 0.64005
145 1 0.0947013 0.999051 0.5 -0.915313 0.272476
146 1 0.04467 0.10276 0.5 -0.314987 0.738632
147 1 0.025003 0.193029 0.5 -0.802152 0.133615
148 1 0.0781847 0.17666 0.5 -0.712372 0.35075
149 1 0.0111296 0.216111 0.5 -0.732505 0.598611
150 1 0.0667913 0.0641094 0.5 -0.480913 0.751873
151 1 0.106636 0.0223365 0.5 -0.644534 0.697619
152 1 0.0212847 0.131344 0.5 -0.468678 0.586413
153 1 0.0699371 0.194298 0.5 -0.376086 0.811221
154 1 0.095436 0.00899757 0.5 -0.781656 0.550278
155 1 0.0851899 0.0609054 0.5 -0.720642 0.641432
156 1 0.0386442 0.129592 0.5 -0.699458 0.615406
157 1 0.0256892 0.00765921 0.5 -0.608151 0.498059
158 1 0.0559978 0.226233 0.5 -0.501477 0.669218
159 1 0.000645952 0.132769 0.5 -0.110982 0.723577
160 1 0.00753976 0.0178574 0.5 -0.770057 0.536651
161 1 0.0127014 0.0500848 0.5 -0.692931 0.375858
162 1 0.0057232 0.997554 0.5 -0.674745 0.725948
163 1 0.0568603 0.0387516 0.5 -0.495723 0.610204
164 1 0.0608385 0.245927 0.5 -0.651422 0.527013
165 1 0.0787144 0.0111207 0.5 -0.506672 0.832086
166 1 0.0307294 0.0588299 0.5 -0.789475 0.496591
167 1 0.103743 0.180047 0.5 -0.687218 0.60269
168 1 0.0180346 0.0221668 0.5 -0.872038 0.279806
169 1 0.105911 0.101006 0.5 -0.733868 0.599838
170 1 0.0446156 0.946563 0.5 -0.627102 0.574396
171 1 0.0967897 0.0194309 0.5 -0.53707 0.753297
172 1 0.0313701 0.154733 0.5 -0.753084 -0.0557753
173 1 0.0698378 0.0836865 0.5 -0.735804 0.650962
174 1 0.0607562 0.0802572 0.5 -0.701874 0.694831
175 1 0.0449439 0.202787 0.5 -0.694581 0.667503
176 1 0.0038781 0.162379 0.5 -0.168257 0.285083
177 1 0.0670035 0.230556 0.5 -0.789364 0.556427
178 1 0.0603746 0.190013 0.5 -0.455361 0.819667
179 1 0.0950363 0.175422 0.5 -0.881635 0.347037
180 1 0.102032 0.139338 0.5 -0.758732 0.488509
181 1 0.0689399 0.0734939 0.5 -0.512194 0.787389
182 1 0.0257804 0.104102 0.5 -0.431869 0.381002
183 1 0.979122 0.996162 0.5 -0.85174 0.426852
184 1 0.0835857 0.0510174 0.5 -0.64863 0.742613
185 1 0.0352248 0.0872306 0.5 -0.655789 0.394945
186 1 0.0168064 0.187247 0.5 -0.73342 0.370633
187 1 0.0867121 0.00419329 0.5 -0.68541 0.519127
188 1 0.0904457 0.0355877 0.5 -0.745872 0.59451
189 1 0.0890412 0.102793 0.5 -0.844438 0.513257
190 1 0.992906 0.208955 0.5 -0.367406 0.349951
191 1 0.0158599 0.177628 0.5 -0.911777 0.389418
192 1 0.0850202 0.218798 0.5 -0.70606 0.477899
193 1 0.995391 0.0619839 0.5 -0.903302 0.279852
194 1 0.0898596 0.112833 0.5 -0.795221 0.588731
195 1 0.0281669 0.224721 0.5 -0.7313 0.304985
196 1 0.0683154 0.239992 0.5 -0.816021 0.475557
197 1 0.00973654 0.0392899 0.5 -0.541519 0.613266
198 1 0.100706 0.206131 0.5 -0.451144 0.673941
199 1 0.0149762 0.0811861 0.5 -0.561747 0.665634
200 1 0.115851 0.105625 0.5 -0.580495 0.785471
201 1 0.0344582 0.0113733 0.5 -0.475183 0.825253
202 1 0.0809427 0.108664 0.5 -0.784597 0.608523
203 1 0.0865506 0.170276 0.5 -0.582407 0.610545
204 1 0.0311515 0.0684784 0.5 -0.738908 0.580825
205 1 0.0566652 0.127766 0.5 -0.851389 0.366495
206 1 0.111878 0.163788 0.5 -0.563594 0.534756
207 1 0.00499991 0.152536 0.5 -0.600683 0.0619489
208 1 0.0572902 0.0505174 0.5 -0.80423 0.526728
209 1 0.0537563 0.0972231 0.5 -0.624278 0.677657
210 1 0.0940261 0.233358 0.5 -0.833605 0.530143
211 1 0.0616777 0.0898348 0.5 -0.628498 0.733526
212 1 0.0169392 0.198916 0.5 -0.571227 0.676393
213 1 0.993651 0.160323 0.5 -0.320789 0.494324
214 1 0.996425 0.102705 0.5 -0.626558 0.485789
215 1 0.0826321 0.20968 0.5 -0.444465 0.590275
216 1 0.978439 0.0744579 0.5 -0.874038 0.441925
217 1 0.991705 0.128862 0.5 -0.418381 0.871415
218 1 0.0383717 0.109718 0.5 -0.397771 0.527444
219 1 0.0368282 0.228263 0.5 -0.442008 0.413239
220 1 0.0233003 0.994872 0.5 -0.473153 0.626862
221 1 0.00817872 0.116754 0.5 -0.946785 0.237151
222 1 0.0870118 0.180399 0.5 -0.932173 0.175875
223 1 0.036468 0.208245 0.5 -0.679396 0.600727
224 1 0.0154222 0.167803 0.5 -0.624945 0.580939
225 1 0.0725686 0.0272093 0.5 -0.858081 0.491632
226 1 0.103726 0.237505 0.5 -0.566971 0.765944
227 1 0.0391606 0.0516052 0.5 -0.728701 0.468851
228 1 0.0642626 0.0329709 0.5 -0.723107 0.647828
229 1 0.0947666 0.0753992 0.5 -0.913279 0.218163
230 1 0.0646496 0.120907 0.5 -0.666379 0.680472
231 1 0.0857855 0.0712973 0.5 -0.834187 0.528217
232 1 0.10299 0.0805375 0.5 -0.802984 0.165937
233 1 0.985799 0.145578 0.5 -0.495128 0.0566848
234 1 0.0125095 0.158341 0.5 -0.438092 0.136676
235 1 0.0292109 0.0487843 0.5 -0.573491 0.66899
236 1 0.983295 0.136634 0.5 -0.57755 0.641512
237 1 0.121238 0.146138 0.5 -0.533437 0.540498
238 1 0.994444 0.141386 0.5 -0.231246 0.42338
239 1 0.0758062 0.155449 0.5 -0.927204 0.11306
240 1 0.0829741 0.128662 0.5 -0.864064 0.467104
241 1 0.0239756 0.171975 0.5 -0.904518 0.139895
242 1 0.0134004 0.070187 0.5 -0.599909 0.748639
243 1 0.067128 0.171649 0.5 -0.675865 0.165704
244 1 0.0221619 0.150874 0.5 -0.864889 0.273918
245 1 0.0884255 0.0931146 0.5 -0.732859 0.476186
246 1 0.0584885 0.235631 0.5 -0.31937 0.761963
247 1 0.0184176 0.0320923 0.5 -0.775186 0.254164
248 1 0.999248 0.191541 0.5 -0.667204 0.509421
249 1 0.994562 0.151027 0.5 -0.581815 0.0316642
250 1 0.00745074 0.0962269 0.5 -0.950356 0.144928
251 1 0.0280775 0.0282725 0.5 -0.546216 0.340938
252 1 0.0124856 0.13639 0.5 -0.39924 0.635334
253 1 0.0504909 0.075901 0.5 -0.672279 0.624444
254 1 0.0413103 0.172302 0.5 -0.724989 0.655054
255 1 0.0539908 0.0294036 0.5 -0.468899 0.674328
256 1 0.0454139 0.0253482 0.5 -0.762057 0.539432
257 1 0.0385873 0.119784 0.5 -0.857293 0.347636
258 1 0.105725 0.190322 0.5 -0.306698 0.895856
259 1 0.999481 0.122452 0.5 -0.672326 0.67376
260 1 0.0202937 0.0439698 0.5 -0.743724 0.610496
261 1 0.0597077 0.0706665 0.5 -0.583925 0.674402
262 1 0.0488302 0.0567079 0.5 -0.862728 0.448742
263 1 0.043364 0.0822103 0.5 -0.726826 0.540007
264 1 0.0219439 0.0548741 0.5 -0.804033 0.359985
265 1 0.0596604 0.00299187 0.5 -0.776771 0.461524
266 1 0.00983517 0.205935 0.5 -0.525138 0.779325
267 1 0.0496421 0.156823 0.5 -0.569561 -0.177183
268 1 0.0435919 0.193146 0.5 -0.711221 0.641035
269 1 0.0792678 0.197596 0.5 -0.455661 0.712742
270 1 0.0942135 0.16381 0.5 -0.746759 0.15433
271 1 0.104936 0.247173 0.5 -0.773579 0.556626
272 1 0.975027 0.131936 0.5 -0.734936 0.569211
273 1 0.0817525 0.0414452 0.5 -0.73848 0.594379
274 1 0.0867672 0.0815312 0.5 -0.772403 0.564095
275 1 0.0755097 0.0572637 0.5 -0.652743 0.739173
276 1 0.0460244 0.212946 0.5 -0.818441 0.550416
277 1 0.0270744 0.203522 0.5 -0.733813 0.539386
278 1 0.0677012 0.161057 0.5 -0.648005 -0.127761
279 1 0.074321 0.135198 0.5 -0.594672 0.733329
280 1 0.0654695 0.0438733 0.5 -0.686234 0.611671
281 1 0.0473995 0.1231 0.5 -0.842916 0.447909
282 1 0.997088 0.181073 0.5 -0.55005 0.282789
283 1 0.0332608 0.178249 0.5 -0.809636 0.18249
284 1 0.0744288 0.0473037 0.5 -0.62461 0.768302
285 1 0.0327509 3.82995e-05 0.5 -0.553145 0.691661
286 1 0.0494782 0.166342 0.5 -0.280634 0.127226
287 1 0.00813949 0.126391 0.5 -0.510579 0.448119
288 1 0.0572885 0.148872 0.5 -0.38572 0.328026
289 1 0.0933282 0.223402 0.5 -0.849177 0.473235
290 1 0.0676159 0.997796 0.5 -0.74813 0.546762
291 1 0.0383112 0.21869 0.5 -0.75654 0.299032
292 1 0.103405 0.00355368 0.5 -0.62036 0.682397
293 1 0.0986919 0.0289306 0.5 -0.537472 0.835528
294 1 0.0474134 0.112766 0.5 -0.621845 0.551782
295 1 0.0759752 0.145979 0.5 -0.819287 0.439451
296 1 0.0497939 0.263427 0.5 -0.494467 0.22665
297 1 0.99835 0.0247433 0.5 -0.489406 0.727467
298 1 0.121038 0.156695 0.5 -0.787053 0.427784
299 1 0.0383673 0.0404344 0.5 -0.620137 0.436586
300 1 0.00309032 0.0459099 0.5 -0.684359 0.516804
301 1 0.0625899 0.200235 0.5 -0.387153 0.901034
302 1 0.0942371 0.987504 0.5 -0.446331 0.555062
303 1 0.00439126 0.0670611 0.5 -0.689552 0.503646
304 1 0.0583892 0.993467 0.5 -0.825964 0.236338
305 1 0.0556724 0.206479 0.5 -0.449134 0.626099
306 1 0.995597 0.0716704 0.5 -0.626601 0.542301
307 1 0.079659 0.0980932 0.5 -0.8167 0.443668
308 1 0.990171 0.197344 0.5 -0.253425 0.721267
309 1 0.108446 0.121281 0.5 -0.860403 0.460323
310 1 0.0969858 0.0966803 0.5 -0.714131 0.678789
311 1 0.0312625 0.989859 0.5 -0.838756 0.469041
312 1 0.0873945 0.192618 0.5 -0.739277 0.352253
313 1 0.0628726 0.100188 0.5 -0.629366 0.684529
314 1 0.0329886 0.0778361 0.5 -0.553616 0.736507
315 1 0.0579934 0.0603071 0.5 -0.74335 0.64411
316 1 0.0118506 0.226693 0.5 -0.733714 0.61228
317 1 0.113383 0.240388 0.5 -0.519981 0.657362
318 1 0.0492139 0.987416 0.5 -0.960548 0.0715163
319 1 0.0492711 0.232809 0.5 -0.320317 0.767033
320 1 0.0729465 0.0372268 0.5 -0.761219 0.563409
321 1 0.00656218 0.0865174 0.5 -0.907548 0.204993
322 1 0.0199912 0.220132 0.5 -0.855877 0.369535
323 1 0.103346 0.148945 0.5 -0.874948 0.332
324 1 0.0508901 0.186587 0.5 -0.672807 0.647295
325 1 0.0225972 0.140834 0.5 -0.84722 0.407676
326 1 0.00627789 0.0764822 0.5 -0.751393 0.423752
327 1 0.999472 0.201207 0.5 -0.536398 0.572557
328 1 0.983938 0.0373401 0.5 -0.327513 0.719009
329 1 0.0523123 0.196752 0.5 -0.402408 0.829148
330 1 0.0774445 0.0774643 0.5 -0.759104 0.629336
331 1 0.0495977 0.0664522 0.5 -0.753332 0.622341
332 1 0.0480779 0.0458444 0.5 -0.881011 0.39876
333 1 0.0146286 0.446442 0.5 -0.609264 0.670804
334 1 0.0911939 0.43224 0.5 -0.862401 0.374636
335 1 0.989085 0.462863 0.5 -0.934488 0.119316
336 1 0.0437565 0.467611 0.5 -0.824103 0.474069
337 1 0.0939914 0.386022 0.5 -0.918326 0.338336
338 1 0.0133596 0.367277 0.5 -0.738443 0.572496
339 1 0.0936809 0.332537 0.5 -0.448887 0.765229
340 1 0.0597517 0.378365 0.5 -0.765732 0.52085
341 1 0.0634642 0.419452 0.5 -0.668355 0.640972
342 1 0.982097 0.303535 0.5 -0.959209 0.087795
343 1 0.0906144 0.454959 0.5 -0.204438 -0.460696
344 1 0.00602226 0.26337 0.5 -0.527359 0.630953
345 1 0.0365758 0.329741 0.5 -0.585325 0.429179
346 1 0.0317493 0.375707 0.5 -0.740451 0.297852
347 1 0.997982 0.458156 0.5 -0.908497 0.160624
348 1 0.0526462 0.394084 0.5 -0.842817 0.330173
349 1 0.0126995 0.357805 0.5 -0.788354 0.416375
350 1 0.0651418 0.438765 0.5 -0.743204 0.616494
351 1 0.0145083 0.247069 0.5 -0.81686 0.313162
352 1 0.996163 0.358948 0.5 -0.833622 -0.0180498
353 1 0.115957 0.261077 0.5 -0.372453 0.894717
354 1 0.0769135 0.386706 0.5 -0.832323 0.494601
355 1 0.0845409 0.315996 0.5 -0.328274 0.357508
356 1 0.108947 0.2984 0.5 -0.841965 -0.062915
357 1 0.0847341 0.381821 0.5 -0.911643 0.290795
358 1 0.0638046 0.298882 0.5 -0.798186 0.509987
359 1 0.0735359 0.314102 0.5 -0.595269 0.522639
360 1 0.0942654 0.343275 0.5 -0.52895 -0.0784317
361 1 0.100122 0.449816 0.5 -0.722353 -0.208355
362 1 0.997259 0.467466 0.5 -0.855702 0.253347
363 1 0.0384488 0.437214 0.5 -0.768917 0.606838
364 1 0.0487463 0.351667 0.5 -0.659343 0.515931
365 1 0.0841017 0.328738 0.5 -0.78132 0.448032
366 1 0.023671 0.449872 0.5 -0.507838 0.698152
367 1 0.0206772 0.230799 0.5 -0.690666 0.629403
368 1 0.0278342 0.302503 0.5 -0.878502 0.160462
369 1 0.0152003 0.465942 0.5 -0.720385 0.534852
370 1 0.0495964 0.361457 0.5 -0.360081 0.612315
371 1 0.105767 0.257487 0.5 -0.459452 0.756187
372 1 0.0192592 0.319723 0.5 -0.847908 0.485721
373 1 0.0153931 0.456622 0.5 -0.870253 0.342414
374 1 0.108724 0.266928 0.5 -0.49627 0.689511
375 1 0.0373062 0.427704 0.5 -0.766946 0.605699
376 1 0.117411 0.271481 0.5 -0.706918 0.619335
377 1 0.0448406 0.291238 0.5 -0.884858 0.368681
378 1 0.07502 0.32352 0.5 -0.760818 0.553971
379 1 0.992341 0.406175 0.5 -0.546512 0.585088
380 1 0.0897444 0.289133 0.5 -0.834611 0.421549
381 1 0.988162 0.38417 0.5 -0.842639 0.266676
382 1 0.0636295 0.288181 0.5 -0.640656 0.480216
383 1 0.0613495 0.27878 0.5 -0.552006 0.665705
384 1 0.0190332 0.419432 0.5 -0.717555 0.59837
385 1 0.0584644 0.365779 0.5 -0.66584 0.333333
386 1 0.0113047 0.425062 0.5 -0.724878 0.667818
387 1 0.0524904 0.405134 0.5 -0.836006 0.406876
388 1 0.101668 0.380644 0.5 -0.839299 0.446837
389 1 0.00874373 0.284492 0.5 -0.59267 0.613031
390 1 0.0780101 0.244896 0.5 -0.858102 0.486095
391 1 0.0773987 0.453946 0.5 -0.269861 0.60572
392 1 0.0152564 0.388306 0.5 -0.66778 0.662886
393 1 0.0810266 0.285417 0.5 -0.710083 0.621497
394 1 0.0877604 0.402773 0.5 -0.579516 0.522105
395 1 0.0517647 0.462276 0.5 -0.67637 0.665717
396 1 0.970893 0.395625 0.5 -0.833708 0.290622
397 1 0.0237317 0.2716 0.5 -0.520992 0.655146
398 1 0.0417199 0.390719 0.5 -0.762234 0.25434
399 1 0.0715776 0.413606 0.5 -0.541788 0.733661
400 1 0.0393753 0.238042 0.5 -0.068652 0.649288
401 1 0.0742491 0.443027 0.5 -0.600749 0.6914
402 1 0.0926875 0.49511 0.5 -0.453502 0.229651
403 1 0.0669361 0.350786 0.5 -0.943996 0.192247
404 1 0.996352 0.378216 0.5 -0.809161 0.222028
405 1 0.0562253 0.435419 0.5 -0.686404 0.662644
406 1 0.0273106 0.313974 0.5 -0.911627 0.233321
407 1 0.084095 0.370612 0.5 -0.953074 0.198387
408 1 0.0468703 0.43138 0.5 -0.674983 0.708162
409 1 0.0437158 0.478147 0.5 -0.517017 0.560757
410 1 0.0111014 0.32577 0.5 -0.810755 0.56665
411 1 0.00700503 0.472072 0.5 -0.79816 0.584296
412 1 0.00106308 0.311712 0.5 -0.662703 0.695414
413 1 0.0756022 0.334931 0.5 -0.812572 0.324059
414 1 0.00541512 0.374458 0.5 -0.746481 0.293294
415 1 0.101702 0.491152 0.5 -0.51045 0.194221
416 1 0.0040975 0.242774 0.5 -0.853493 0.381458
417 1 0.0609819 0.256407 0.5 -0.82831 -0.0132439
418 1 0.987724 0.443034 0.5 -0.84065 0.291921
419 1 0.0572523 0.314742 0.5 -0.808886 0.506275
420 1 0.976036 0.349763 0.5 -0.781157 0.424874
421 1 0.0825323 0.43746 0.5 -0.747053 0.582509
422 1 0.00541783 0.383787 0.5 -0.826018 0.34863
423 1 0.080723 0.417263 0.5 -0.818975 0.510252
424 1 0.0914496 0.323223 0.5 -0.311023 0.37482
425 1 0.999778 0.3997 0.5 -0.512026 0.763152
426 1 0.0226635 0.371768 0.5 -0.854144 0.284819
427 1 0.0334402 0.276226 0.5 -0.661843 0.397258
428 1 0.0241068 0.460431 0.5 -0.696927 0.584539
429 1 0.995355 0.239013 0.5 -0.754018 0.431727
430 1 0.0695535 0.392617 0.5 -0.817923 0.382677
431 1 0.982931 0.234779 0.5 -0.432523 0.628498
432 1 0.00513906 0.442237 0.5 -0.637244 0.625782
433 1 0.0989015 0.283466 0.5 -0.895009 0.132692
434 1 0.978462 0.378893 0.5 -0.640177 0.647519
435 1 0.0543452 0.285661 0.5 -0.543676 0.534337
436 1 0.0395637 0.348912 0.5 -0.358408 0.85858
437 1 0.0432486 0.369306 0.5 -0.367542 0.452966
438 1 0.0230138 0.361333 0.5 -0.769435 0.397216
439 1 0.0998881 0.292962 0.5 -0.86411 0.23762
440 1 0.0448129 0.411642 0.5 -0.772463 0.502258
441 1 0.0760413 0.376213 0.5 -0.816336 0.423914
442 1 0.057068 0.444818 0.5 -0.563719 0.713115
443 1 0.994688 0.36871 0.5 -0.838301 -0.0344813
444 1 0.0169824 0.397901 0.5 -0.747566 0.599505
445 1 0.100108 0.480231 0.5 -0.871947 0.0133565
446 1 0.0730687 0.478844 0.5 -0.487903 0.730127
447 1 0.00912544 0.305747 0.5 -0.798559 0.507624
448 1 0.0121273 0.335654 0.5 -0.905046 0.213436
449 1 0.975704 0.41708 0.5 -0.781564 0.37848
450 1 0.100854 0.470578 0.5 -0.599836 0.189938
451 1 0.100103 0.273851 0.5 -0.740948 0.274935
452 1 0.0608858 0.388719 0.5 -0.845044 0.489583
453 1 0.10459 0.400615 0.5 -0.831543 0.535965
454 1 0.0925747 0.366009 0.5 -0.873627 0.381023
455 1 0.0780858 0.463345 0.5 -0.34453 0.530172
456 1 0.0857602 0.338298 0.5 -0.761817 0.406372
457 1 0.0784786 0.25518 0.5 -0.785795 0.481952
458 1 0.996953 0.390377 0.5 -0.612426 0.334805
459 1 0.0834527 0.361004 0.5 -0.834191 -0.217935
460 1 0.963628 0.469296 0.5 -0.447033 0.727208
461 1 0.0856124 0.391248 0.5 -0.749962 0.532803
462 1 0.0783167 0.397772 0.5 -0.77392 0.496572
463 1 0.993127 0.339024 0.5 -0.694269 0.408564
464 1 0.0745275 0.488416 0.5 -0.628036 0.753431
465 1 0.984773 0.422018 0.5 -0.861801 0.42307
466 1 0.987666 0.452546 0.5 -0.92466 0.200948
467 1 0.0887157 0.41193 0.5 -0.888216 0.434745
468 1 0.0986705 0.460976 0.5 -0.539017 0.0247327
469 1 0.00308726 0.331375 0.5 -0.700696 0.517612
470 1 0.986469 0.431611 0.5 -0.786037 0.443309
471 1 0.0604712 0.268025 0.5 -0.808992 0.390939
472 1 0.0426231 0.270675 0.5 -0.668612 0.531616
473 1 0.0234041 0.241756 0.5 -0.652923 0.495545
474 1 0.0285395 0.324676 0.5 -0.937454 0.217476
475 1 0.977972 0.438266 0.5 -0.880603 0.339197
476 1 0.00732934 0.394048 0.5 -0.60845 0.771511
477 1 0.991645 0.318886 0.5 -0.772152 0.310253
478 1 0.0848152 0.514467 0.5 -0.835079 0.134524
479 1 0.0593195 0.455373 0.5 -0.448552 0.881643
480 1 0.0344073 0.474707 0.5 -0.858754 0.205739
481 1 0.0719143 0.282326 0.5 -0.6774 0.586215
482 1 0.0902475 0.268801 0.5 -0.637598 0.362932
483 1 0.0687638 0.263236 0.5 -0.463898 0.265306
484 1 0.0392731 0.447369 0.5 -0.485789 0.699105
485 1 0.0829883 0.481917 0.5 -0.529706 0.744776
486 1 0.0365739 0.319441 0.5 -0.721246 0.339953
487 1 0.0436862 0.247029 0.5 0.0817558 -0.293805
488 1 0.0481528 0.321752 0.5 -0.598007 0.408421
489 1 0.0895317 0.421369 0.5 -0.846026 0.378418
490 1 0.0449536 0.42162 0.5 -0.765322 0.52534
491 1 0.118722 0.291128 0.5 -0.542195 0.485506
492 1 0.0809148 0.42788 0.5 -0.793087 0.52961
493 1 0.0694378 0.45907 0.5 -0.670399 0.618794
494 1 0.992884 0.328611 0.5 -0.751832 0.472662
495 1 0.0940347 0.395416 0.5 -0.606931 0.424605
496 1 0.00677058 0.451814 0.5 -0.828963 0.39227
497 1 0.0119958 0.345659 0.5 -0.771408 0.239849
498 1 0.075164 0.365489 0.5 -0.88623 0.101484
499 1 0.0610863 0.409953 0.5 -0.688944 0.498745
500 1 0.0332545 0.366389 0.5 -0.545482 0.349081
501 1 0.101091 0.369775 0.5 -0.807734 0.52163
502 1 0.0305357 0.442848 0.5 -0.576453 0.691576
503 1 0.0935857 0.375836 0.5 -0.88047 0.345803
504 1 0.0204252 0.329933 0.5 -0.862681 0.205452
505 1 0.028839 0.423417 0.5 -0.719938 0.625268
506 1 0.113374 0.251521 0.5 -0.582962 0.618835
507 1 0.0392318 0.493246 0.5 -0.159972 0.5387
508 1 0.0353654 0.407065 0.5 -0.697864 0.647363
509 1 0.998009 0.280397 0.5 -0.648716 0.593861
510 1 0.0694047 0.251456 0.5 -0.859772 0.231009
511 1 0.0222598 0.26196 0.5 -0.707806 0.325814
512 1 0.0177518 0.486181 0.5 -0.575436 0.677537
513 1 0.0584277 0.346362 0.5 -0.931998 0.122868
514 1 0.0124018 0.236932 0.5 -0.72235 0.632706
515 1 0.0656979 0.319524 0.5 -0.785696 0.517607
516 1 0.00429533 0.363811 0.5 -0.851168 0.1989
517 1 0.0334095 0.38562 0.5 -0.754363 0.354928
518 1 0.00633678 0.462292 0.5 -0.914812 0.236993
519 1 0.100895 0.437414 0.5 -0.679093 0.00107915
520 1 0.0781818 0.265525 0.5 -0.353678 0.650185
521 1 0.00166501 0.410287 0.5 -0.751926 0.565459
522 1 0.118542 0.447039 0.5 -0.4799 0.56025
523 1 0.0178905 0.407824 0.5 -0.797364 0.403668
524 1 0.0914418 0.473677 0.5 -0.161992 0.200595
525 1 0.071714 0.293286 0.5 -0.63052 0.467353
526 1 0.0884282 0.464374 0.5 0.0432871 0.124088
527 1 0.111536 0.385209 0.5 -0.828155 0.475768
528 1 0.0830178 0.306576 0.5 -0.315719 0.895459
529 1 0.99699 0.447611 0.5 -0.840591 0.415409
530 1 0.0325156 0.454388 0.5 -0.45826 0.762032
531 1 0.0104539 0.31511 0.5 -0.727825 0.616901
532 1 0.0623237 0.474981 0.5 -0.353373 0.848171
533 1 0.081747 0.472692 0.5 0.0606181 0.73147
534 1 0.0210293 0.439645 0.5 -0.500168 0.581954
535 1 0.992834 0.416415 0.5 -0.853243 0.400576
536 1 0.0669548 0.44906 0.5 -0.552444 0.78195
537 1 0.11005 0.318645 0.5 -0.455816 0.711096
538 1 0.981937 0.402024 0.5 -0.504362 0.538821
539 1 0.067516 0.329517 0.5 -0.755024 0.385286
540 1 0.959983 0.380826 0.5 -0.57376 0.574963
541 1 0.0378905 0.339289 0.5 -0.289502 0.869861
542 1 0.0147038 0.268162 0.5 -0.640098 0.655982
543 1 0.087809 0.25958 0.5 -0.650783 0.638458
544 1 0.0922336 0.309368 0.5 -0.431724 0.419789
545 1 0.100271 0.50197 0.5 0.314857 0.0449869
546 1 0.0841729 0.446932 0.5 -0.150142 0.505664
547 1 0.101474 0.325575 0.5 -0.239823 0.933006
548 1 0.00330167 0.233349 0.5 -0.701609 0.682655
549 1 0.0104147 0.414397 0.5 -0.7599 0.54261
550 1 0.0712167 0.272805 0.5 -0.481252 0.682792
551 1 0.0295954 0.433341 0.5 -0.834539 0.542326
552 1 0.0976868 0.416779 0.5 -0.768492 0.507687
553 1 0.0335625 0.396977 0.5 -0.657034 0.478829
554 1 0.0169929 0.476387 0.5 -0.739658 0.647599
555 1 0.0895751 0.279177 0.5 -0.847204 0.224611
556 1 0.0361402 0.308633 0.5 -0.72504 0.161864
557 1 0.0996244 0.427478 0.5 -0.672493 0.532623
558 1 0.00179485 0.420929 0.5 -0.751438 0.56054
559 1 0.0920868 0.441774 0.5 -0.722057 -0.0968829
560 1 0.0426037 0.400498 0.5 -0.66309 0.656817
561 1 0.98952 0.473464 0.5 -0.874567 0.354474
562 1 0.0652077 0.309426 0.5 -0.904902 0.368142
563 1 0.0898525 0.29949 0.5 -0.491753 0.648095
564 1 0.109056 0.43062 0.5 -0.575811 0.404311
565 1 0.98031 0.467588 0.5 -0.894879 0.25017
566 1 0.035031 0.464115 0.5 -0.591969 0.561179
567 1 0.0670949 0.340939 0.5 -0.917467 0.241793
568 1 0.0258436 0.391494 0.5 -0.565215 0.528895
569 1 0.118245 0.281712 0.5 -0.709855 0.584622
570 1 0.0343721 0.265761 0.5 -0.350834 0.326669
571 1 0.0182281 0.287752 0.5 -0.696306 0.520911
572 1 0.0424501 0.45802 0.5 -0.516469 0.780472
573 1 0.0478318 0.311165 0.5 -0.560613 0.681011
574 1 0.9945 0.248841 0.5 -0.655452 0.446366
575 1 0.0266878 0.4032 0.5 -0.828681 0.319091
576 1 0.0856896 0.502818 0.5 -0.490997 0.360176
577 1 0.0267629 0.412956 0.5 -0.758009 0.486246
578 1 0.0180204 0.309481 0.5 -0.821093 0.431873
579 1 0.971103 0.385852 0.5 -0.733266 0.480281
580 1 0.0940143 0.519588 0.5 -0.739259 0.478124
581 1 0.100771 0.360079 0.5 -0.853733 0.464221
582 1 0.0357758 0.286545 0.5 -0.767433 0.47807
583 1 0.976605 0.427317 0.5 -0.885089 0.391456
584 1 0.97722 0.369584 0.5 -0.771252 0.482358
585 1 0.0766053 0.499336 0.5 -0.608382 0.528182
586 1 0.969413 0.375786 0.5 -0.633626 0.640146
587 1 0.0402812 0.359888 0.5 -0.194451 0.80873
588 1 0.00354739 0.253392 0.5 -0.480461 0.481121
589 1 0.100394 0.350576 0.5 -0.323379 0.321825
590 1 0.0988773 0.264088 0.5 -0.450482 0.709112
591 1 0.0202656 0.341233 0.5 -0.953648 0.0217739
592 1 0.0146915 0.378236 0.5 -0.802362 0.523217
593 1 0.983976 0.41118 0.5 -0.785248 0.44391
594 1 0.0102426 0.493799 0.5 -0.644398 0.552452
595 1 0.109298 0.27714 0.5 -0.85522 0.285131
596 1 0.0521076 0.38453 0.5 -0.839301 0.450521
597 1 0.0761168 0.354812 0.5 -0.830209 0.0252186
598 1 0.0232152 0.251296 0.5 -0.949784 -0.0909679
599 1 0.103222 0.390307 0.5 -0.846049 0.399961
600 1 0.0197288 0.497275 0.5 -0.560269 0.796795
601 1 0.0527048 0.274708 0.5 -0.525094 0.796509
602 1 0.99695 0.261018 0.5 -0.445633 0.45892
603 1 0.0232873 0.38223 0.5 -0.591174 0.697161
604 1 0.0647892 0.484073 0.5 -0.276916 0.775236
605 1 0.978591 0.261293 0.5 -0.635479 0.661324
606 1 0.0313775 0.356166 0.5 -0.685992 0.64969
607 1 0.0261683 0.469632 0.5 -0.717843 0.368132
608 1 0.0916141 0.356301 0.5 -0.549692 -0.0318269
609 1 0.0560375 0.304788 0.5 -0.595168 0.724889
610 1 0.0833337 0.492233 0.5 -0.442104 0.761942
611 1 0.0792661 0.407387 0.5 -0.649911 0.569135
612 1 0.0722077 0.423341 0.5 -0.883833 0.450222
613 1 0.112621 0.493391 0.5 -0.324887 0.202316
614 1 0.12198 0.244939 0.5 -0.751583 0.585477
615 1 0.0689232 0.404702 0.5 -0.518865 0.324834
616 1 0.0801449 0.275604 0.5 -0.593699 0.740841
617 1 0.057462 0.33666 0.5 -0.865794 0.185543
618 1 0.0312574 0.256543 0.5 -0.354847 0.195088
619 1 0.0272695 0.29255 0.5 -0.896709 0.412867
620 1 0.0503968 0.451832 0.5 -0.472793 0.817255
621 1 0.0920339 0.485194 0.5 -0.821602 0.393213
622 1 0.00917811 0.296301 0.5 -0.594879 0.215101
623 1 0.107662 0.444195 0.5 -0.483482 0.237809
624 1 0.0324496 0.24618 0.5 -0.270157 0.322952
625 1 0.0641409 0.428789 0.5 -0.751713 0.562289