# LAMMPS data file written by Ovito 3.7.11
10725 atoms
1 atom types
-58.36 58.36 xlo xhi
-58.36 58.36 ylo yhi
-0.5 0.5 zlo zhi

Atoms  # atomic

1 1 -48.657159776 -44.40367288 0.0
2 1 -52.131167168 -44.84137288 0.0
3 1 -47.959092472 -55.56023736 0.0
4 1 -53.760088144 -40.64563904 0.0
5 1 -47.517365632 -44.04359168 0.0
6 1 -48.02280992 -37.03513928 0.0
7 1 -51.139957584 -33.52175056 0.0
8 1 -47.322886768 -41.56609296 0.0
9 1 -49.13614364 -48.157749912 0.0
10 1 -58.2089328056 -54.650860168 0.0
11 1 -55.248163096 -56.651546016 0.0
12 1 -50.024873064 -34.24027888 0.0
13 1 -53.168341088 -55.599140136 0.0
14 1 -49.997747336 -47.373134728 0.0
15 1 -53.435139664 -49.999147976 0.0
16 1 -52.010805504 -32.80497304 0.0
17 1 58.3646688 -56.952041656 0.0
18 1 -49.452478184 58.219936 0.0
19 1 -54.391414952 -46.796386192 0.0
20 1 -57.4201845664 -57.6369522816 0.0
21 1 -45.47037696 -42.95891272 0.0
22 1 -47.273397488 -40.27587008 0.0
23 1 -46.63150752 -54.085573536 0.0
24 1 -55.073678368 -42.7352772 0.0
25 1 -47.355766792 -50.835750248 0.0
26 1 -52.652497048 -40.58973016 0.0
27 1 -53.44836404 -47.71811236 0.0
28 1 -48.83687356 -31.31434192 0.0
29 1 -47.891675 -34.71206112 0.0
30 1 -53.572869264 57.38690536 0.0
31 1 -50.706774648 -43.31234088 0.0
32 1 -47.365244456 -42.85421488 0.0
33 1 -47.950408504 -38.22603344 0.0
34 1 -51.396041264 -38.60210528 0.0
35 1 -45.6853752 -45.41084976 0.0
36 1 -46.839245776 -36.55833808 0.0
37 1 -52.364875624 57.77569968 0.0
38 1 -55.322081872 -43.85789016 0.0
39 1 -55.218259432 -31.9602704 0.0
40 1 -49.783227648 -46.27399416 0.0
41 1 -46.67446048 -45.8925532 0.0
42 1 -50.030907488 -33.13960928 0.0
43 1 -47.784094176 -33.4717944 0.0
44 1 -53.363286832 -58.0441766896 0.0
45 1 -54.446681872 -38.83706264 0.0
46 1 -55.824222984 -50.989061968 0.0
47 1 -53.54874324 -39.56364464 0.0
48 1 -48.548621848 -43.06010896 0.0
49 1 -52.305290064 -57.6322951536 0.0
50 1 57.38258672 -55.176146856 0.0
51 1 -57.682271156 -49.589040584 0.0
52 1 -50.601901728 -40.73656392 0.0
53 1 -50.212803936 -56.675777088 0.0
54 1 -50.768974736 -52.229760552 0.0
55 1 -45.2243312 -40.44709832 0.0
56 1 -43.9094804 -32.33249048 0.0
57 1 -50.633988056 -42.08467992 0.0
58 1 -55.494092136 -57.8086135528 0.0
59 1 -55.122607392 -54.161838384 0.0
60 1 -55.518556648 -35.87494248 0.0
61 1 -52.27526968 -37.88392712 0.0
62 1 -50.981626904 -45.45847152 0.0
63 1 -45.74396864 -32.10126816 0.0
64 1 -56.232929736 -44.49121288 0.0
65 1 -51.106995856 -44.3676064 0.0
66 1 -49.157083208 -38.95214856 0.0
67 1 -54.893847864 -51.694109128 0.0
68 1 -51.179280552 -37.51917712 0.0
69 1 -48.935198488 -54.958359008 0.0
70 1 -55.32370428 -45.0941884 0.0
71 1 -51.613222168 -29.2465304 0.0
72 1 55.90584528 -48.793605456 0.0
73 1 -45.35167272 -41.57578072 0.0
74 1 -57.008475776 -51.59922744 0.0
75 1 -48.955717864 -37.66601088 0.0
76 1 -52.884828208 -42.88327816 0.0
77 1 -51.120523704 -55.999478064 0.0
78 1 -55.646213312 -49.896621128 0.0
79 1 56.29557336 -43.92372024 0.0
80 1 -46.40985624 -43.5564024 0.0
81 1 -48.815618848 -33.9736904 0.0
82 1 -54.349745912 -35.31328584 0.0
83 1 -48.156034128 -35.81821656 0.0
84 1 -48.445429696 -41.93667896 0.0
85 1 -55.369715304 -47.464176328 0.0
86 1 -47.164182584 -48.572607808 0.0
87 1 -55.611325704 -48.708936768 0.0
88 1 -53.863805536 -51.176210816 0.0
89 1 -44.21481992 -35.86840616 0.0
90 1 58.10414976 -37.3673244 0.0
91 1 -53.196610672 -56.867874864 0.0
92 1 -58.061856268 -41.73416976 0.0
93 1 -48.98370732 -56.035789656 0.0
94 1 54.88151056 -48.04002612 0.0
95 1 -55.217990976 -33.2932128 0.0
96 1 -53.072478952 -37.14473936 0.0
97 1 -56.364823336 -37.40502496 0.0
98 1 -57.6577517856 57.58918112 0.0
99 1 -45.8808812 -47.839921352 0.0
100 1 -46.0623808 -33.21641104 0.0
101 1 -57.6127340488 -45.97635816 0.0
102 1 -55.316420952 -55.507409888 0.0
103 1 -47.53766324 -51.948558728 0.0
104 1 -52.745861376 -29.69485192 0.0
105 1 57.20167072 -44.6238068 0.0
106 1 -56.688207768 -46.740967536 0.0
107 1 56.0238492 -46.54490128 0.0
108 1 -45.04493256 -38.01710464 0.0
109 1 -48.500241408 56.21912176 0.0
110 1 -54.282935384 -36.50674784 0.0
111 1 -48.168044616 -56.89977444 0.0
112 1 -55.771395512 -40.8829308 0.0
113 1 -52.691014648 -41.69611904 0.0
114 1 -49.98860816 -31.98384784 0.0
115 1 -56.575246152 -45.52698616 0.0
116 1 -51.722495432 -42.62299256 0.0
117 1 58.05676144 -36.03216432 0.0
118 1 -52.1000146 -45.97157264 0.0
119 1 -52.351161024 -48.191517008 0.0
120 1 -48.442208224 -40.66326376 0.0
121 1 56.91430608 -48.143720168 0.0
122 1 -47.780289104 -30.89485024 0.0
123 1 -54.81299592 -41.56200776 0.0
124 1 -47.636443376 -45.25479512 0.0
125 1 56.32078488 -56.804052368 0.0
126 1 -55.7326328 56.25332072 0.0
127 1 -50.36053644 -57.8232128904 0.0
128 1 -51.237558848 -57.141921752 0.0
129 1 -46.37098848 -42.21657352 0.0
130 1 -52.948113792 -32.20783352 0.0
131 1 -46.91011816 -35.29180936 0.0
132 1 -51.818929496 55.88413536 0.0
133 1 -50.656935208 56.41007568 0.0
134 1 -53.025289056 -54.295704552 0.0
135 1 -53.801547088 -42.05351568 0.0
136 1 -56.56566344 -47.876302976 0.0
137 1 -56.906053976 55.61136072 0.0
138 1 -47.715754616 -29.69333456 0.0
139 1 -52.191161248 -56.333063824 0.0
140 1 57.14214352 -37.92629648 0.0
141 1 -46.692050184 -30.16488336 0.0
142 1 -48.625306888 57.4898524 0.0
143 1 -51.942570992 -31.65574792 0.0
144 1 -49.587103032 -50.562567088 0.0
145 1 -47.172411344 57.91482992 0.0
146 1 -53.123859096 -46.49868016 0.0
147 1 -56.547408432 -36.34275624 0.0
148 1 -46.985274168 -37.64710224 0.0
149 1 -56.305692984 -33.98279456 0.0
150 1 -50.673030896 -51.138790384 0.0
151 1 -45.94892896 -55.8645264 0.0
152 1 -56.228190904 -43.1443808 0.0
153 1 -51.064404728 -34.63619312 0.0
154 1 -47.11554536 -57.566893436 0.0
155 1 -48.397165976 -51.256677584 0.0
156 1 -53.975319824 -43.45508944 0.0
157 1 -56.410180728 -57.11302188 0.0
158 1 -51.821999232 -30.45995152 0.0
159 1 -58.2021373672 -42.93918704 0.0
160 1 -57.3560130776 -56.479780864 0.0
161 1 -58.0437623336 -52.025979104 0.0
162 1 57.39846064 -57.5633404792 0.0
163 1 -51.931482592 -53.818903352 0.0
164 1 -50.567259232 -28.90314016 0.0
165 1 -49.271468808 -57.3262413072 0.0
166 1 -55.045420456 -53.044407792 0.0
167 1 -45.51508072 -35.98582648 0.0
168 1 -56.081894056 -54.69399988 0.0
169 1 -45.9427428 -46.730649488 0.0
170 1 -52.850897704 51.78352832 0.0
171 1 -47.015586352 -56.271809168 0.0
172 1 -53.267716496 -38.4248076 0.0
173 1 -50.285532168 -48.590536 0.0
174 1 -51.35306496 -48.873500296 0.0
175 1 -53.221728816 -34.45947904 0.0
176 1 -57.6979034656 -38.15658504 0.0
177 1 -50.98878184 -32.4113932 0.0
178 1 -50.003058096 -37.01214544 0.0
179 1 -45.87352784 -37.25854136 0.0
180 1 -46.34846152 -41.0089884 0.0
181 1 -50.618861144 -49.928940896 0.0
182 1 -55.410508944 -46.35149624 0.0
183 1 55.89032152 56.11325672 0.0
184 1 -48.561496064 -52.386492168 0.0
185 1 -54.489599816 -48.160060968 0.0
186 1 -56.279139184 -35.0673568 0.0
187 1 -48.112089048 -58.2152216792 0.0
188 1 -47.870513664 -54.42519372 0.0
189 1 -47.847391432 -46.41989416 0.0
190 1 57.25139344 -34.16826264 0.0
191 1 -55.4816848 -38.21447816 0.0
192 1 -48.968965584 -32.5654636 0.0
193 1 57.71698952 -51.343038712 0.0
194 1 -46.61948536 -44.70854552 0.0
195 1 -54.230318008 -31.5184852 0.0
196 1 -49.87381404 -30.83287192 0.0
197 1 -57.3078474024 -53.9908786 0.0
198 1 -46.72628416 -34.09251136 0.0
199 1 -56.691942808 -49.005790744 0.0
200 1 -44.74437856 -46.24142928 0.0
201 1 -54.253370208 -57.305679912 0.0
202 1 -48.954282208 -45.5330556 0.0
203 1 -48.141735928 -39.54030064 0.0
204 1 -54.789044976 -50.566383832 0.0
205 1 -52.045261248 -43.71770944 0.0
206 1 -45.18954864 -39.12606136 0.0
207 1 -57.9083706352 -40.59591632 0.0
208 1 -51.830368056 -52.707752296 0.0
209 1 -52.09341992 -47.091419336 0.0
210 1 -46.780185456 -31.40631728 0.0
211 1 -51.146563936 -47.704619528 0.0
212 1 -56.184129104 -32.57900312 0.0
213 1 -57.5884352792 -39.30872816 0.0
214 1 58.03038272 -47.87866072 0.0
215 1 -48.990103576 -35.06140408 0.0
216 1 55.90024272 -47.651862088 0.0
217 1 57.36799672 -43.5027112 0.0
218 1 -54.184948944 -45.7122208 0.0
219 1 -55.134162672 -30.7901524 0.0
220 1 -56.695187624 56.85711328 0.0
221 1 -57.5377752976 -44.81849576 0.0
222 1 -47.051372704 -39.14426968 0.0
223 1 -54.17191132 -33.8295412 0.0
224 1 -55.780826488 -39.68211544 0.0
225 1 -50.215523512 -55.274051592 0.0
226 1 -45.72307576 -30.8817776 0.0
227 1 -54.063163296 -53.66248688 0.0
228 1 -51.021265016 -54.474577952 0.0
229 1 -47.472288368 -49.750919552 0.0
230 1 -49.694216976 -43.78330608 0.0
231 1 -48.555204856 -50.062293496 0.0
232 1 -46.14606904 -48.964168392 0.0
233 1 57.52918704 -41.08205512 0.0
234 1 -56.819809568 -40.10767656 0.0
235 1 -53.876539688 -52.265885392 0.0
236 1 56.39525224 -42.78009768 0.0
237 1 -44.23081056 -41.19270568 0.0
238 1 57.46510776 -42.21540632 0.0
239 1 -49.564412664 -39.94742 0.0
240 1 -49.978476864 -44.99100792 0.0
241 1 -54.844732088 -40.26629904 0.0
242 1 -56.748983872 -50.286664352 0.0
243 1 -50.099632224 -38.2135444 0.0
244 1 -56.945166848 -41.1969076 0.0
245 1 -48.048161504 -47.913700064 0.0
246 1 -50.787451512 -30.07512568 0.0
247 1 -56.230175144 -53.531071832 0.0
248 1 -57.4694544128 -36.89892704 0.0
249 1 58.02513032 -39.81681032 0.0
250 1 -57.6800032864 -47.30743304 0.0
251 1 -56.36572208 -56.03458744 0.0
252 1 -57.122546232 -42.34286456 0.0
253 1 -52.378345112 -49.286408968 0.0
254 1 -54.172308168 -37.73125736 0.0
255 1 -51.96975508 -55.252061544 0.0
256 1 -54.191450248 -56.113583536 0.0
257 1 -54.30082856 -44.563696 0.0
258 1 -45.88566672 -34.9033652 0.0
259 1 58.3033908 -44.16357984 0.0
260 1 -57.109438576 -52.699068328 0.0
261 1 -51.6976224 -50.18393908 0.0
262 1 -52.764980112 -52.048494392 0.0
263 1 -53.393493968 -48.817404664 0.0
264 1 -55.9062538 -52.280790536 0.0
265 1 -51.42169632 58.33292096 0.0
266 1 -58.2313675568 -33.62551464 0.0
267 1 -51.715153744 -41.2173336 0.0
268 1 -53.114416448 -35.941006 0.0
269 1 -50.073977168 -35.44926464 0.0
270 1 -46.14922048 -38.48596888 0.0
271 1 -45.72809472 -29.58992064 0.0
272 1 55.32843144 -43.29985184 0.0
273 1 -48.668843448 -53.554322456 0.0
274 1 -48.310443016 -48.997877128 0.0
275 1 -49.671900112 -51.725646872 0.0
276 1 -52.984250304 -33.37351616 0.0
277 1 -55.136928936 -34.4429048 0.0
278 1 -50.557606488 -39.36825536 0.0
279 1 -49.578734208 -42.47335752 0.0
280 1 -50.812896472 -53.34179868 0.0
281 1 -53.156202208 -44.25578864 0.0
282 1 -56.632812456 -38.75244064 0.0
283 1 -55.289820464 -36.98985192 0.0
284 1 -49.817543328 -52.820363752 0.0
285 1 -54.525619608 58.1890052 0.0
286 1 -52.46604852 -39.18302072 0.0
287 1 -57.2919933248 -43.73288304 0.0
288 1 -51.589644728 -40.131254 0.0
289 1 -47.918158768 -31.99587 0.0
290 1 -50.593486216 57.6083232 0.0
291 1 -54.085877008 -32.72840472 0.0
292 1 -46.2222872 -58.2440403141 0.0
293 1 -46.848279904 -55.178644664 0.0
294 1 -53.09371032 -45.38260352 0.0
295 1 -49.539668024 -41.05474264 0.0
296 1 -50.5094128 -27.47915616 0.0
297 1 -58.3563966902 -55.806038008 0.0
298 1 -44.12016 -39.9952752 0.0
299 1 -54.079632488 -54.935330152 0.0
300 1 -58.2030162688 -53.219546152 0.0
301 1 -52.150215872 -34.099748 0.0
302 1 -46.26710768 56.10765416 0.0
303 1 -57.8633960848 -50.920103792 0.0
304 1 -51.604024632 56.98690592 0.0
305 1 -52.052322808 -35.29741192 0.0
306 1 56.66791016 -50.736853392 0.0
307 1 -48.96800848 -47.027164976 0.0
308 1 57.16525408 -35.28947496 0.0
309 1 -45.41551856 -44.14327056 0.0
310 1 -47.054710896 -47.404684144 0.0
311 1 -55.56373896 57.64940864 0.0
312 1 -49.20325764 -36.2374748 0.0
313 1 -51.030929432 -46.57268064 0.0
314 1 -54.433200712 -49.466017704 0.0
315 1 -51.733502128 -51.568541752 0.0
316 1 -58.1557960256 -31.19096888 0.0
317 1 -44.7486972 -30.40369248 0.0
318 1 -52.68087168 56.67211208 0.0
319 1 -52.886077112 -31.03491424 0.0
320 1 -49.740076264 -53.942941696 0.0
321 1 57.67065168 -49.047623192 0.0
322 1 57.57295704 -30.60480104 0.0
323 1 -46.1242424 -39.76206864 0.0
324 1 -51.961958184 -36.59627208 0.0
325 1 -55.975620496 -41.9964396 0.0
326 1 -57.7232772264 -48.423673088 0.0
327 1 -57.477520932 -35.6713828 0.0
328 1 57.32095856 -56.31232268 0.0
329 1 -50.95306552 -36.13020912 0.0
330 1 -49.41154448 -49.230488416 0.0
331 1 -52.7232994 -50.832645496 0.0
332 1 -52.880311144 -53.172041112 0.0
333 1 -57.3646783704 -5.84393696 0.0
334 1 -46.26734112 -8.72808816 0.0
335 1 57.5318716 -4.38493696 0.0
336 1 -52.910821752 -3.64119712 0.0
337 1 -45.88309888 -14.11249848 0.0
338 1 -56.517131264 -16.84514712 0.0
339 1 -48.195999056 -17.36116624 0.0
340 1 -51.809195048 -12.2958684 0.0
341 1 -50.175208424 -6.95697888 0.0
342 1 56.206516 -23.1158124 0.0
343 1 -47.951458984 -4.87819568 0.0
344 1 -54.600308736 -27.0860432 0.0
345 1 -52.928131328 -20.73449096 0.0
346 1 -53.291398984 -15.32685336 0.0
347 1 -58.3331451791 -5.10311512 0.0
348 1 -51.686463968 -11.15738152 0.0
349 1 -54.663500944 -18.1307012 0.0
350 1 -49.130739504 -6.58370832 0.0
351 1 -56.912893768 -29.41834224 0.0
352 1 57.74967112 -17.95538776 0.0
353 1 -44.43973936 -28.04303048 0.0
354 1 -47.76275776 -12.7434896 0.0
355 1 -47.700534328 -21.6171276 0.0
356 1 -44.95867648 -24.96500736 0.0
357 1 -47.923726312 -13.97091712 0.0
358 1 -50.27591444 -23.96249928 0.0
359 1 -49.819504224 -21.5395088 0.0
360 1 -47.510829312 -19.27035528 0.0
361 1 -47.044031016 -5.54268264 0.0
362 1 -58.1535608376 -3.918874 0.0
363 1 -54.323052048 -6.749334 0.0
364 1 -50.424685752 -17.20662896 0.0
365 1 -48.383206264 -18.60668536 0.0
366 1 -56.400014416 -6.50678984 0.0
367 1 -57.128218824 -31.97731152 0.0
368 1 -54.167032424 -23.5360044 0.0
369 1 -56.096343992 -4.21697688 0.0
370 1 -51.372627232 -16.6010856 0.0
371 1 -45.62736536 -28.4925192 0.0
372 1 -55.165046784 -21.60884048 0.0
373 1 -56.3424948 -5.36048272 0.0
374 1 -45.3999948 -27.34772944 0.0
375 1 -54.490591936 -7.91840152 0.0
376 1 -44.18225504 -26.93337344 0.0
377 1 -52.371575352 -24.89007312 0.0
378 1 -48.828481392 -22.17843408 0.0
379 1 -58.2213448104 -11.91967984 0.0
380 1 -48.15639596 -23.85219888 0.0
381 1 58.336656 -14.36216256 0.0
382 1 -50.308666072 -25.09561704 0.0
383 1 -50.496445208 -26.279508 0.0
384 1 -55.682991784 -9.65134336 0.0
385 1 -51.244246904 -15.19612696 0.0
386 1 -56.798309744 -10.14460208 0.0
387 1 -51.445203728 -10.01387568 0.0
388 1 -45.93994152 -15.37330792 0.0
389 1 -57.5963162136 -25.05523192 0.0
390 1 -48.727133416 -30.23036328 0.0
391 1 -50.132418872 -5.84195272 0.0
392 1 -55.342099352 -13.98293928 0.0
393 1 -48.212293168 -25.05243064 0.0
394 1 -47.72581588 -11.5366048 0.0
395 1 -52.01825224 -4.50527528 0.0
396 1 56.3314064 -14.0682616 0.0
397 1 -56.585529184 -25.72298704 0.0
398 1 -53.80039156 -12.30380536 0.0
399 1 -49.505352344 -8.93188128 0.0
400 1 -56.193058184 -31.20357464 0.0
401 1 -51.108466528 -5.22485408 0.0
402 1 -47.232101952 -0.17017776 0.0
403 1 -49.043082784 -15.58212 0.0
404 1 -57.4025948624 -14.9874316 0.0
405 1 -53.365843 -7.47755008 0.0
406 1 -54.05676704 -22.28103096 0.0
407 1 -48.872251392 -13.28296944 0.0
408 1 -52.44007832 -8.14752288 0.0
409 1 -52.632502912 -2.48508552 0.0
410 1 -56.150828888 -21.02699128 0.0
411 1 -56.968545864 -3.53743304 0.0
412 1 -57.2922641152 -22.7183808 0.0
413 1 -48.788563152 -21.0142688 0.0
414 1 -56.470956832 -15.63919608 0.0
415 1 -46.29196904 -0.84166792 0.0
416 1 -57.6471326 -26.23655504 0.0
417 1 -49.617415216 -29.5365796 0.0
418 1 57.245324 -6.68151968 0.0
419 1 -50.873264056 -20.86475048 0.0
420 1 55.48203496 -18.7913364 0.0
421 1 -48.039512552 -7.36281432 0.0
422 1 -56.318322088 -14.47222952 0.0
423 1 -48.503964776 -9.57827664 0.0
424 1 -47.67416728 -20.47653976 0.0
425 1 -57.109508608 -12.66038496 0.0
426 1 -55.414500768 -15.0983156 0.0
427 1 -53.330395136 -26.75584232 0.0
428 1 -55.118907368 -4.81575048 0.0
429 1 -58.1311225848 -30.01956696 0.0
430 1 -52.881209888 -11.65285792 0.0
431 1 56.61643664 -31.15536928 0.0
432 1 -57.4904955272 -6.97728816 0.0
433 1 -46.27154304 -25.51977752 0.0
434 1 57.3486212 -14.92872144 0.0
435 1 -51.34413588 -25.5505916 0.0
436 1 -53.476937096 -17.63907656 0.0
437 1 -52.24667328 -15.87695472 0.0
438 1 -53.39286368 -16.45203416 0.0
439 1 -47.10690808 -24.64402736 0.0
440 1 -52.365109064 -9.28075736 0.0
441 1 -49.777064832 -12.5789144 0.0
442 1 -52.325190824 -6.82205056 0.0
443 1 -57.6263634432 -16.3518884 0.0
444 1 -55.186569952 -12.60821112 0.0
445 1 -46.44090376 -1.98388984 0.0
446 1 -49.638051312 -2.38820792 0.0
447 1 -56.37704392 -23.41671656 0.0
448 1 -55.642828432 -17.5074164 0.0
449 1 55.72784728 -9.7472872 0.0
450 1 -46.59590792 -3.22590736 0.0
451 1 -46.3430924 -26.64997728 0.0
452 1 -49.675950296 -11.48186312 0.0
453 1 -45.64428976 -11.77961584 0.0
454 1 -46.975703128 -14.61754592 0.0
455 1 -48.942260048 -4.23355112 0.0
456 1 -49.42660136 -16.69889696 0.0
457 1 -48.586053952 -28.8800296 0.0
458 1 -57.3090111008 -13.7636224 0.0
459 1 -49.938990488 -13.69814248 0.0
460 1 54.29417552 -3.59590976 0.0
461 1 -46.730159264 -12.3378876 0.0
462 1 -48.615642472 -10.75329688 0.0
463 1 -58.1851079192 -19.7163424 0.0
464 1 -49.494509056 -1.17105176 0.0
465 1 56.90963728 -9.07229544 0.0
466 1 57.39402528 -5.55843984 0.0
467 1 -48.717445656 -12.03745032 0.0
468 1 -46.826009728 -4.37163088 0.0
469 1 -57.228417108 -20.44059 0.0
470 1 55.99245152 -7.4397328 0.0
471 1 -51.449160536 -26.89613976 0.0
472 1 -52.533092488 -28.57574056 0.0
473 1 -56.00056356 -30.05341576 0.0
474 1 -54.97762948 -20.47513912 0.0
475 1 54.80727664 -7.98516536 0.0
476 1 -56.241485312 -13.31821888 0.0
477 1 -58.2972735048 -22.07513688 0.0
478 1 -47.999104088 1.83985736 0.0
479 1 -49.982632096 -4.6933112 0.0
480 1 -54.001581824 -3.27948184 0.0
481 1 -49.432367328 -25.74971592 0.0
482 1 -47.492866104 -27.070286 0.0
483 1 -49.59450308 -28.34335104 0.0
484 1 -53.292846312 -6.2818704 0.0
485 1 -48.560737384 -1.85806568 0.0
486 1 -52.866082976 -21.8931704 0.0
487 1 -53.706011768 -30.26094392 0.0
488 1 -51.844771304 -21.47496264 0.0
489 1 -47.296239592 -9.20465592 0.0
490 1 -53.457689968 -9.81907 0.0
491 1 -43.88765376 -24.4195748 0.0
492 1 -47.233537608 -8.08822912 0.0
493 1 -48.98487452 -5.41510768 0.0
494 1 -58.2759200477 -20.86451704 0.0
495 1 -45.70766872 -12.95405248 0.0
496 1 58.2736272 -6.31560248 0.0
497 1 -56.776879952 -17.94149808 0.0
498 1 -50.976257784 -14.12008528 0.0
499 1 -50.580600328 -9.3014168 0.0
500 1 -52.396915264 -17.0773032 0.0
501 1 -44.96789736 -15.98118568 0.0
502 1 -55.31226572 -6.0816956 0.0
503 1 -46.9903048 -15.74692864 0.0
504 1 -56.041812408 -19.8966748 0.0
505 1 -55.620324816 -8.34676392 0.0
506 1 -44.69827416 -29.18268456 0.0
507 1 -53.442726464 -0.68036088 0.0
508 1 -53.73666244 -10.91250296 0.0
509 1 58.0285152 -25.4963168 0.0
510 1 -50.8598646 -31.28784648 0.0
511 1 -55.60208148 -27.57638392 0.0
512 1 -55.945273296 -1.80787608 0.0
513 1 -51.602448912 -18.8742076 0.0
514 1 -57.132875952 -30.52543144 0.0
515 1 -49.856200992 -20.4061576 0.0
516 1 -55.418329184 -16.375816 0.0
517 1 -52.273098688 -14.6057572 0.0
518 1 -57.2319747336 -4.6723016 0.0
519 1 -46.16205968 -7.4694964 0.0
520 1 -48.61423016 -27.62248832 0.0
521 1 -57.038951368 -11.40459448 0.0
522 1 -44.76597176 -5.89774488 0.0
523 1 -55.910840896 -10.86453104 0.0
524 1 -47.63990996 -2.5923512 0.0
525 1 -49.237433256 -24.63037112 0.0
526 1 -47.831657576 -3.7297876 0.0
527 1 -44.82526552 -13.6731644 0.0
528 1 -47.897405952 -22.79331504 0.0
529 1 58.1656612 -7.42234152 0.0
530 1 -54.297198568 -5.6282384 0.0
531 1 -56.261677872 -22.1878884 0.0
532 1 -50.78814016 -2.82835904 0.0
533 1 -48.752520016 -3.06354984 0.0
534 1 -56.636419104 -7.65986672 0.0
535 1 57.81153272 -10.95755688 0.0
536 1 -51.327818424 -6.3052144 0.0
537 1 -44.81802888 -23.7659428 0.0
538 1 56.48851152 -11.78101648 0.0
539 1 -49.780484728 -19.191686 0.0
540 1 55.28874664 -13.40400808 0.0
541 1 -52.721093392 -19.45407256 0.0
542 1 -57.830418016 -27.40865728 0.0
543 1 -47.671144232 -28.30728456 0.0
544 1 -46.68788328 -22.41397504 0.0
545 1 -45.98908064 0.33533656 0.0
546 1 -48.001613568 -6.09862 0.0
547 1 -46.6774952 -21.14312768 0.0
548 1 -58.129005284 -32.48165864 0.0
549 1 -57.8315291904 -10.65723632 0.0
550 1 -49.438261688 -26.87804816 0.0
551 1 -55.498013928 -7.18154816 0.0
552 1 -47.494103336 -10.38737968 0.0
553 1 -54.265088896 -13.38358208 0.0
554 1 -56.001275552 -2.96620536 0.0
555 1 -47.326271648 -25.89234776 0.0
556 1 -53.146666184 -23.0504492 0.0
557 1 -46.47393552 -9.96461984 0.0
558 1 58.0238464 -9.85782104 0.0
559 1 -47.030491496 -6.82555216 0.0
560 1 -52.532555576 -10.42508024 0.0
561 1 57.61591 -3.2249736 0.0
562 1 -50.888531032 -22.04058776 0.0
563 1 -46.866955104 -23.58479336 0.0
564 1 -45.00909952 -7.04428544 0.0
565 1 56.5835216 -3.66232344 0.0
566 1 -54.043566008 -4.40104432 0.0
567 1 -49.435086904 -17.9830504 0.0
568 1 -54.15060992 -14.6127604 0.0
569 1 -43.17437784 -26.42237328 0.0
570 1 -54.60354188 -28.25779528 0.0
571 1 -55.593747672 -25.18012232 0.0
572 1 -53.089753512 -4.9390068 0.0
573 1 -52.017575264 -22.61496688 0.0
574 1 57.73356376 -29.3439916 0.0
575 1 -54.865765032 -11.53753856 0.0
576 1 -48.192334048 0.41003736 0.0
577 1 -54.833760408 -10.37675816 0.0
578 1 -55.2812182 -22.72328304 0.0
579 1 56.30654504 -12.91320048 0.0
580 1 -46.981223984 2.33078168 0.0
581 1 -46.13322984 -16.4785296 0.0
582 1 -53.436668696 -25.48966376 0.0
583 1 55.8236744 -8.53526672 0.0
584 1 57.14366088 -15.98900592 0.0
585 1 -49.33007392 0.0192588 0.0
586 1 56.17009936 -15.31471448 0.0
587 1 -51.512691232 -17.7408564 0.0
588 1 -56.849012912 -28.19535008 0.0
589 1 -48.12902512 -16.24240504 0.0
590 1 -46.53346272 -27.80877344 0.0
591 1 -53.816954128 -20.01491216 0.0
592 1 -54.429255576 -16.933154 0.0
593 1 56.79957032 -10.481456 0.0
594 1 -56.7381756 -1.02293408 0.0
595 1 -45.22117976 -26.2514952 0.0
596 1 -52.849858896 -12.84842088 0.0
597 1 -48.995075848 -14.37663584 0.0
598 1 -55.5654314 -28.75058712 0.0
599 1 -44.92937976 -14.78305488 0.0
600 1 -55.60791748 -0.55080168 0.0
601 1 -51.42963328 -28.08329888 0.0
602 1 56.92457744 -27.3585844 0.0
603 1 -54.475453352 -15.77214016 0.0
604 1 -50.509692928 -1.66897928 0.0
605 1 55.69866728 -28.0174688 0.0
606 1 -53.829583232 -18.84712856 0.0
607 1 -55.03721504 -3.67224464 0.0
608 1 -47.183814888 -16.83487576 0.0
609 1 -51.177331328 -23.34913568 0.0
610 1 -48.431773456 -0.76439928 0.0
611 1 -50.639882416 -10.79496592 0.0
612 1 -49.31145708 -7.83226216 0.0
613 1 -45.12091728 -0.3863432 0.0
614 1 -43.63378776 -30.07675976 0.0
615 1 -46.805735464 -13.51349144 0.0
616 1 -48.402826896 -26.34872296 0.0
617 1 -50.478178528 -18.32947536 0.0
618 1 -53.756936704 -29.15327112 0.0
619 1 -54.49049856 -24.65511576 0.0
620 1 -52.198432904 -5.60757896 0.0
621 1 -47.501876888 -1.47405688 0.0
622 1 -56.530133872 -24.59477152 0.0
623 1 -45.9269856 -6.34466576 0.0
624 1 -53.475256328 -27.94930432 0.0
625 1 -50.386308216 -8.16199616 0.0
626 1 -52.35341372 -26.18951688 0.0
627 1 -51.922168336 -13.56239712 0.0
628 1 -53.931911656 -21.15479968 0.0
629 1 -51.648179808 -1.94677288 0.0
630 1 58.03295056 -26.6261664 0.0
631 1 -46.7705794 -28.99826696 0.0
632 1 -52.53322088 -18.22839584 0.0
633 1 -56.165710688 -12.07771872 0.0
634 1 -51.42280516 -8.61020096 0.0
635 1 -54.821434776 -19.34120432 0.0
636 1 -57.6577704608 -9.42770784 0.0
637 1 -53.15475488 -13.89131408 0.0
638 1 -50.743424728 -11.90975864 0.0
639 1 -50.881212688 -4.01423424 0.0
640 1 -50.352937968 0.72985016 0.0
641 1 -44.52004272 -3.44744192 0.0
642 1 -46.52774344 -11.15983264 0.0
643 1 58.2356932 -24.37767232 0.0
644 1 -48.809631112 -19.69323184 0.0
645 1 -45.51776528 -3.95949256 0.0
646 1 -53.398851416 -8.7324068 0.0
647 1 -56.593757944 -8.98323808 0.0
648 1 -55.838124336 -18.6086696 0.0
649 1 -45.55955104 -2.69296384 0.0
650 1 -53.396878848 -24.3308676 0.0
651 1 -45.82590608 -23.16892 0.0
652 1 57.03499456 -7.92307032 0.0
653 1 -54.93496832 -29.71189304 0.0
654 1 -50.056725952 -14.81538632 0.0
655 1 -48.034762048 -15.13765024 0.0
656 1 -56.564659648 -27.08359208 0.0
657 1 -49.080911736 2.5001424 0.0
658 1 -55.415201088 -24.06206144 0.0
659 1 -51.20004504 -7.39783032 0.0
660 1 -57.2192347456 -21.59016528 0.0
661 1 -44.09961728 -25.72065264 0.0
662 1 -51.364398472 -24.44198504 0.0
663 1 -51.881666496 -20.29714112 0.0
664 1 57.92206656 -16.7866704 0.0
665 1 -50.354081824 -15.9550404 0.0
666 1 -49.81008492 -3.54758768 0.0
667 1 -56.859284272 -19.17966384 0.0
668 1 -51.783796776 -3.35208168 0.0
669 1 -52.27556148 -23.79734048 0.0
670 1 -52.555596104 -1.33842824 0.0
671 1 -54.576777984 -25.84250832 0.0
672 1 -48.302459368 -8.44282448 0.0
673 1 -57.5752424176 -8.27042904 0.0
674 1 -52.475631232 -27.46760088 0.0
675 1 53.21813384 -4.05870456 0.0
676 1 -45.87726288 -5.23570904 0.0
677 1 -49.682883464 -10.16211008 0.0
678 1 -47.20576992 1.04476072 0.0
679 1 -49.201401792 -23.51767936 0.0
680 1 -50.064849664 -22.8461892 0.0
681 1 -55.553094096 -26.4668436 0.0
682 1 -50.80523964 -19.65693192 0.0
683 1 58.04789072 -8.62875944 0.0
684 1 56.19531088 13.15060896 0.0
685 1 57.77604984 -2.00898464 0.0
686 1 -53.7119178 19.76980016 0.0
687 1 56.81194264 -1.43145408 0.0
688 1 -47.889854168 4.22257944 0.0
689 1 -49.228959384 10.32925312 0.0
690 1 -49.902363752 15.84917536 0.0
691 1 -57.4220392472 13.46633656 0.0
692 1 -43.97449344 10.67602824 0.0
693 1 -52.510495496 9.00471456 0.0
694 1 -47.531955632 27.19599344 0.0
695 1 -54.73666104 9.18014472 0.0
696 1 -56.973518136 8.07970856 0.0
697 1 -50.057846464 12.25431608 0.0
698 1 -46.6448136 17.33980648 0.0
699 1 -57.539767708 0.8281284 0.0
700 1 -56.294009312 23.18105888 0.0
701 1 -55.603878968 19.95059944 0.0
702 1 -54.594601128 -1.3317752 0.0
703 1 -54.589161976 20.49708248 0.0
704 1 -46.9868032 23.93903856 0.0
705 1 -56.692001168 20.62278992 0.0
706 1 -56.147887544 16.27905512 0.0
707 1 -54.373264992 1.11164128 0.0
708 1 -48.584805048 7.37168504 0.0
709 1 -53.186024168 23.49585272 0.0
710 1 -54.462228976 -0.1143856 0.0
711 1 -48.129982224 22.42459656 0.0
712 1 -49.156032728 11.63570008 0.0
713 1 -56.17885336 5.09844632 0.0
714 1 -55.409516824 13.33187512 0.0
715 1 -58.2877238246 24.48003576 0.0
716 1 -45.28175744 20.13408328 0.0
717 1 -56.508505656 12.81737336 0.0
718 1 56.52784616 6.41177976 0.0
719 1 -55.662495752 12.1050312 0.0
720 1 -54.958125568 -2.5631712 0.0
721 1 -56.002069248 6.21732424 0.0
722 1 -55.101901264 5.50521552 0.0
723 1 -48.885522456 25.50145248 0.0
724 1 -57.3682756808 22.62955688 0.0
725 1 -51.07282024 23.09328544 0.0
726 1 -51.000955736 15.28576792 0.0
727 1 -57.233967144 25.0154304 0.0
728 1 -52.150215872 14.92802112 0.0
729 1 56.17418456 1.94560568 0.0
730 1 -52.128821096 25.24571896 0.0
731 1 -53.161104448 14.3501404 0.0
732 1 -44.11327352 20.60271408 0.0
733 1 -54.474589624 12.57529608 0.0
734 1 56.61830416 7.5908852 0.0
735 1 -58.2343894376 25.742596 0.0
736 1 -50.37133304 11.16695256 0.0
737 1 -54.97692916 16.80814688 0.0
738 1 -45.27277 8.79823688 0.0
739 1 -53.474229192 0.45193984 0.0
740 1 -55.870397416 18.80254152 0.0
741 1 -56.445651936 0.18313368 0.0
742 1 -49.237269848 21.74411896 0.0
743 1 -50.014741768 14.52907216 0.0
744 1 -49.127763144 22.98613648 0.0
745 1 -50.01650424 24.89906056 0.0
746 1 -54.045865392 5.96310808 0.0
747 1 -51.791021744 17.2442128 0.0
748 1 58.21970256 23.3334952 0.0
749 1 55.93385808 21.21374328 0.0
750 1 -53.83692492 18.51657752 0.0
751 1 -50.964258968 16.38071824 0.0
752 1 -49.96759856 4.2322672 0.0
753 1 -52.117849416 5.88548928 0.0
754 1 -48.237014464 21.05908928 0.0
755 1 -47.251185672 21.68494192 0.0
756 1 57.53023752 5.91338536 0.0
757 1 57.05985592 -0.09372616 0.0
758 1 -57.3555438632 14.72924696 0.0
759 1 58.3115612 22.22278768 0.0
760 1 -54.17418736 2.3116396 0.0
761 1 -46.17221432 21.95491528 0.0
762 1 -49.989576936 13.35183424 0.0
763 1 -54.088818352 4.84306296 0.0
764 1 -54.15271088 14.91109672 0.0
765 1 57.57073936 17.3994504 0.0
766 1 -58.0255143288 26.98344632 0.0
767 1 -55.289481976 14.41293576 0.0
768 1 58.25390152 1.61003568 0.0
769 1 56.7416772 -2.52255264 0.0
770 1 -51.72452636 18.4032424 0.0
771 1 -56.083061256 26.71697456 0.0
772 1 -55.69067196 10.96514368 0.0
773 1 -58.1475882752 5.188204 0.0
774 1 -56.943462736 -2.35179128 0.0
775 1 -53.624447832 10.83021536 0.0
776 1 57.95404784 19.71891024 0.0
777 1 -50.470615072 20.1394524 0.0
778 1 -47.914295336 15.49469672 0.0
779 1 -51.224031 1.51047352 0.0
780 1 -57.6679052584 12.40336752 0.0
781 1 -49.043502976 13.95597696 0.0
782 1 -44.41032592 8.02963568 0.0
783 1 57.1420268 21.71493896 0.0
784 1 -51.43185096 9.27375416 0.0
785 1 57.09090344 11.34670136 0.0
786 1 -44.33585856 18.301696 0.0
787 1 -52.70392388 17.87380048 0.0
788 1 -53.845305416 8.57343416 0.0
789 1 -52.973943928 3.91735664 0.0
790 1 -55.179006496 25.083128 0.0
791 1 55.62945232 -2.97192464 0.0
792 1 -54.400180624 21.733264 0.0
793 1 -56.775549344 9.21761184 0.0
794 1 -54.96554896 6.65817568 0.0
795 1 -46.1143212 10.57681624 0.0
796 1 -52.473063392 21.47437904 0.0
797 1 -47.896145376 24.87209824 0.0
798 1 -58.2043807256 3.9754832 0.0
799 1 -47.785483144 5.44358736 0.0
800 1 -49.822025376 5.55248712 0.0
801 1 -49.522801984 19.30677192 0.0
802 1 -46.39748392 8.27124608 0.0
803 1 -45.61079112 17.87986992 0.0
804 1 -51.104404672 2.65899832 0.0
805 1 -56.992765264 27.4566292 0.0
806 1 -47.57518872 6.585926 0.0
807 1 -52.727816464 19.04018344 0.0
808 1 -53.504121184 20.8922964 0.0
809 1 -52.010221904 13.5406872 0.0
810 1 -46.757191616 15.85396088 0.0
811 1 -50.758329872 7.47673304 0.0
812 1 -50.026985696 3.04790936 0.0
813 1 -47.302986008 20.38888304 0.0
814 1 -55.3028114 22.51902304 0.0
815 1 -51.679192312 8.12219464 0.0
816 1 57.26680048 14.90887904 0.0
817 1 -53.927161152 17.26954104 0.0
818 1 -51.279729784 21.9643696 0.0
819 1 -50.983307672 14.04176616 0.0
820 1 -55.53228292 21.21922912 0.0
821 1 -52.590903904 10.13643168 0.0
822 1 -54.50748132 11.47521008 0.0
823 1 -56.051056632 3.75686664 0.0
824 1 -53.660420936 9.64854208 0.0
825 1 -48.351236656 8.47083728 0.0
826 1 -47.675707984 16.68150568 0.0
827 1 -56.749695864 11.75989016 0.0
828 1 -48.918705952 6.18079088 0.0
829 1 -48.546229088 19.86539384 0.0
830 1 -51.610747704 19.65879944 0.0
831 1 57.90210744 -0.85660808 0.0
832 1 -47.167940968 11.3521872 0.0