ITEM: TIMESTEP
0
ITEM: NUMBER OF ATOMS
10180
ITEM: BOX BOUNDS pp pp pp
-5.8359999999999999e+01 5.8359999999999999e+01
-5.8359999999999999e+01 5.8359999999999999e+01
-5.0000000000000000e-01 5.0000000000000000e-01
ITEM: ATOMS id type xs ys zs c_002[1] c_002[2]
1 1 0.102107 0.0941864 0.5 0.256773 -0.915467
2 1 0.0958871 0.0866718 0.5 0.448165 -0.721316
3 1 0.123691 0.984983 0.5 0.550744 -0.735709
4 1 0.161468 0.0935578 0.5 0.642991 -0.317986
5 1 0.170716 0.0913004 0.5 0.272157 -0.878006
6 1 0.176545 0.108337 0.5 0.502448 -0.490634
7 1 0.0662258 0.225178 0.5 0.832904 -0.305385
8 1 0.159234 0.0741664 0.5 0.445782 -0.643298
9 1 0.155663 0.0277386 0.5 0.788699 -0.499773
10 1 0.0122993 0.991782 0.5 0.532581 -0.513611
11 1 0.0576653 0.931538 0.5 0.498955 -0.570885
12 1 0.126782 0.224015 0.5 0.591385 -0.627382
13 1 0.0779979 0.984215 0.5 0.567009 -0.526442
14 1 0.11288 0.0166391 0.5 0.253467 -0.55048
15 1 0.136289 0.0308873 0.5 0.133178 -0.910716
16 1 0.133771 0.133357 0.5 0.277544 -0.304066
17 1 0.0254805 0.990344 0.5 0.695751 -0.306054
18 1 0.0729499 0.937277 0.5 0.379486 -0.642915
19 1 0.108655 0.0557828 0.5 0.605188 -0.507344
20 1 0.026063 0.0340867 0.5 0.546311 -0.579213
21 1 0.177276 0.125125 0.5 0.557735 -0.0572878
22 1 0.191397 0.0872792 0.5 0.541264 -0.412343
23 1 0.247424 0.0453079 0.5 0.170217 -0.737108
24 1 0.090903 0.0483204 0.5 0.736897 -0.21934
25 1 0.185174 0.0512687 0.5 0.350885 -0.840941
26 1 0.110051 0.0735709 0.5 0.521062 -0.832851
27 1 0.0524336 0.0410794 0.5 0.689361 -0.547851
28 1 0.170208 0.19115 0.5 0.521684 -0.79303
29 1 0.179159 0.218139 0.5 0.616813 -0.615391
30 1 0.114707 0.00688212 0.5 0.414894 -0.305777
31 1 0.115697 0.111455 0.5 0.480588 -0.586979
32 1 0.149047 0.121858 0.5 0.403349 -0.814806
33 1 0.092055 0.141114 0.5 0.765223 -0.538841
34 1 0.124909 0.108947 0.5 0.292714 -0.727881
35 1 0.15393 0.110937 0.5 0.389094 -0.70664
36 1 0.125391 0.156379 0.5 0.388445 0.230523
37 1 0.13159 0.0128088 0.5 0.35004 -0.760608
38 1 0.141882 0.112578 0.5 0.15527 -0.857984
39 1 0.0614662 0.23408 0.5 0.809653 -0.438998
40 1 0.151832 0.0676993 0.5 0.114009 -0.783132
41 1 0.161571 0.0645686 0.5 0.287762 -0.819795
42 1 0.165948 0.128383 0.5 0.617524 -0.619561
43 1 0.18681 0.10809 0.5 0.447055 -0.7292
44 1 0.0061179 0.955298 0.5 0.764962 -0.391315
45 1 0.127586 0.0530966 0.5 0.888651 -0.3906
46 1 0.0490336 0.145364 0.5 0.311988 -0.719133
47 1 0.119465 0.129685 0.5 0.273903 -0.403629
48 1 0.14265 0.0378056 0.5 0.194774 -0.257572
49 1 0.0592614 0.00437174 0.5 0.800464 -0.514382
50 1 0.0800592 0.0295631 0.5 0.0926977 -0.905778
51 1 0.111909 0.0909987 0.5 0.265506 -0.772022
52 1 0.172858 0.181899 0.5 0.658867 -0.586006
53 1 0.146594 0.000825004 0.5 0.941101 -0.19736
54 1 0.103327 0.0153463 0.5 0.128998 -0.510979
55 1 0.0805541 0.112665 0.5 0.162811 -0.365666
56 1 0.15961 0.193145 0.5 0.595541 -0.417231
57 1 0.0967627 0.0357532 0.5 0.614536 -0.252719
58 1 0.0385439 0.98007 0.5 0.513076 -0.849825
59 1 0.0649817 0.0128613 0.5 0.760758 -0.413393
60 1 0.11224 0.189118 0.5 0.200037 -0.624297
61 1 0.140211 0.194664 0.5 0.625254 -0.233485
62 1 0.133381 0.0609357 0.5 0.681372 -0.698333
63 1 0.0955317 0.113675 0.5 0.414743 -0.691743
64 1 0.109899 0.102254 0.5 0.456702 -0.640266
65 1 0.149897 0.0936109 0.5 0.920228 -0.315749
66 1 0.131856 0.116223 0.5 0.0423289 -0.934504
67 1 0.0790392 0.078188 0.5 0.666114 -0.61292
68 1 0.162819 0.16455 0.5 0.623692 -0.421353
69 1 0.160293 0.0181164 0.5 0.624875 -0.648345
70 1 0.0415818 0.137822 0.5 0.4055 -0.42604
71 1 0.127409 0.193953 0.5 0.471298 -0.243562
72 1 0.106571 0.0826256 0.5 0.378595 -0.759469
73 1 0.158941 0.0468375 0.5 0.542188 -0.595698
74 1 0.0682387 0.079102 0.5 0.850315 -0.393108
75 1 0.167442 0.101029 0.5 0.422874 -0.720192
76 1 0.121412 0.0892806 0.5 0.386105 -0.600398
77 1 0.100627 0.0263094 0.5 0.587769 -0.428421
78 1 0.0745425 0.0867956 0.5 0.727578 -0.19891
79 1 0.0921157 0.122755 0.5 0.312441 -0.135429
80 1 0.213587 0.113395 0.5 0.618171 -0.161345
81 1 0.163045 0.183253 0.5 0.677101 -0.634121
82 1 0.0541858 0.163958 0.5 -0.0535067 -0.736301
83 1 0.201735 0.233582 0.5 0.547876 -0.766118
84 1 0.166552 0.027204 0.5 0.570173 -0.576562
85 1 0.0355294 0.0622891 0.5 0.754726 -0.0925854
86 1 0.174719 0.0810229 0.5 0.367477 -0.882882
87 1 0.129562 0.0975471 0.5 0.221838 -0.758497
88 1 0.072652 0.99399 0.5 0.858654 -0.464103
89 1 0.127818 0.166993 0.5 0.496079 0.357913
90 1 0.0104353 0.120987 0.5 0.502851 -0.569939
91 1 0.0744885 0.0134001 0.5 0.434677 -0.541437
92 1 0.0963562 0.131769 0.5 0.632562 -0.242592
93 1 0.159072 0.97123 0.5 0.482642 -0.732816
94 1 0.00678016 0.0106781 0.5 -0.205091 -0.909303
95 1 0.0765745 0.205777 0.5 0.714399 -0.19471
96 1 0.0683926 0.0969779 0.5 0.677307 -0.298006
97 1 0.0584269 0.142423 0.5 0.539395 -0.515661
98 1 0.0455609 0.988134 0.5 0.363823 -0.881123
99 1 0.177544 0.0709023 0.5 0.336204 -0.843823
100 1 0.198079 0.124306 0.5 0.688008 -0.136143
101 1 0.0743235 0.105618 0.5 0.515048 -0.281523
102 1 0.0282928 0.952072 0.5 0.427262 -0.635022
103 1 0.146694 0.048085 0.5 0.254073 -0.352058
104 1 0.0850495 0.231366 0.5 0.37861 -0.492464
105 1 0.0610454 0.115924 0.5 0.681197 -0.685527
106 1 0.124972 0.13766 0.5 0.463398 -0.202108
107 1 0.00472246 0.0657598 0.5 0.68931 -0.666552
108 1 0.0894523 0.106122 0.5 -0.0264642 -0.466517
109 1 0.0897499 0.00167116 0.5 0.346028 -0.761057
110 1 0.101965 0.120332 0.5 0.41154 -0.253073
111 1 0.150539 0.963066 0.5 0.574277 -0.477307
112 1 0.118847 0.147311 0.5 0.804993 -0.0790352
113 1 0.171459 0.11626 0.5 0.509012 -0.261159
114 1 0.105924 0.156376 0.5 0.318699 -0.614702
115 1 0.0526318 0.07095 0.5 0.545504 -0.354366
116 1 0.0697045 0.0509982 0.5 0.637335 0.261002
117 1 0.0640038 0.133945 0.5 0.913855 -0.185482
118 1 0.175286 0.00652312 0.5 0.839282 -0.380894
119 1 0.127046 0.0342161 0.5 0.142169 -0.866225
120 1 0.182402 0.0609404 0.5 0.338663 -0.676793
121 1 0.0429127 0.041943 0.5 0.182918 -0.88785
122 1 0.217776 0.195425 0.5 0.338247 -0.627579
123 1 0.129405 0.0707764 0.5 0.487321 -0.854984
124 1 0.122029 0.0139218 0.5 0.156375 -0.760211
125 1 0.0240399 0.016798 0.5 0.921555 -0.242352
126 1 0.0877055 0.928076 0.5 0.155005 -0.637375
127 1 0.149444 0.0186155 0.5 0.55419 -0.65134
128 1 0.1106 0.969469 0.5 0.384579 -0.835293
129 1 0.145117 0.102208 0.5 0.36765 -0.712197
130 1 0.108582 0.146437 0.5 0.464642 -0.383107
131 1 0.112906 0.122946 0.5 0.00872805 -0.103578
132 1 0.0988893 0.998731 0.5 0.328388 -0.748689
133 1 0.0751824 0.0601513 0.5 0.271209 -0.54855
134 1 0.0824933 0.0201484 0.5 0.128545 -0.888774
135 1 0.120761 0.0270317 0.5 0.163433 -0.606665
136 1 0.053287 0.996198 0.5 0.564151 -0.650078
137 1 0.0206933 0.945919 0.5 0.251335 -0.848923
138 1 0.18336 0.180999 0.5 0.70576 -0.68285
139 1 0.070366 0.0321293 0.5 0.161275 -0.666945
140 1 0.122729 0.234437 0.5 0.888343 -0.310284
141 1 0.1663 0.199689 0.5 0.702416 -0.483898
142 1 0.147261 0.97298 0.5 0.554647 -0.783971
143 1 0.142975 0.185101 0.5 0.419167 -0.787242
144 1 0.110263 0.0277059 0.5 0.585474 -0.340804
145 1 0.126431 0.00456802 0.5 0.424474 -0.715939
146 1 0.0905671 0.0274989 0.5 0.436439 -0.814369
147 1 0.123151 0.185367 0.5 0.0821244 -0.169285
148 1 0.131641 0.0878544 0.5 0.394227 -0.76252
149 1 0.105769 0.228211 0.5 0.578391 -0.554153
150 1 0.126409 0.0798704 0.5 0.639322 -0.647347
151 1 0.169674 0.0156042 0.5 0.6021 -0.503626
152 1 0.135944 0.0778353 0.5 0.408009 -0.810187
153 1 0.172864 0.16489 0.5 0.822702 -0.170454
154 1 0.151708 0.991565 0.5 0.515197 -0.445196
155 1 0.192297 0.0311823 0.5 0.825704 -0.242898
156 1 0.155355 0.0829702 0.5 0.572456 -0.393903
157 1 0.0416322 0.996974 0.5 0.641644 -0.683437
158 1 0.0763616 0.177212 0.5 0.700666 -0.240272
159 1 0.0488342 0.0986953 0.5 0.792895 -0.507259
160 1 0.0244094 0.961329 0.5 0.306059 -0.626784
161 1 0.0917852 0.0651718 0.5 0.530692 -0.534707
162 1 0.0482337 0.978254 0.5 0.42302 -0.785549
163 1 0.164221 0.00784295 0.5 0.428247 -0.818281
164 1 0.144262 0.250855 0.5 0.699245 -0.406145
165 1 0.12035 0.996696 0.5 0.460826 -0.57085
166 1 0.116771 0.0367679 0.5 0.754589 -0.49509
167 1 0.166763 0.155533 0.5 0.61475 -0.699753
168 1 0.0713038 0.0224637 0.5 0.18948 -0.681212
169 1 0.222694 0.139175 0.5 0.547211 -0.656385
170 1 0.062901 0.911887 0.5 0.519399 -0.711774
171 1 0.133973 0.0416054 0.5 0.104576 -0.462605
172 1 0.147149 0.176412 0.5 0.812324 -0.360856
173 1 0.172526 0.0356479 0.5 0.583596 -0.748116
174 1 0.111796 0.0456764 0.5 0.764727 -0.410208
175 1 0.0739877 0.133891 0.5 0.245256 -0.523785
176 1 0.0284585 0.145549 0.5 -0.0210536 -0.207969
177 1 0.200819 0.1869 0.5 0.526462 -0.788544
178 1 0.149085 0.148964 0.5 0.646995 -0.680168
179 1 0.144399 0.0854036 0.5 0.436981 -0.704529
180 1 0.0975308 0.0568021 0.5 0.792625 -0.329632
181 1 0.146303 0.132353 0.5 0.390492 -0.714519
182 1 0.0470239 0.0799667 0.5 0.765408 -0.389165
183 1 0.028069 0.927237 0.5 0.188668 -0.682551
184 1 0.187596 0.0228816 0.5 0.658196 -0.608765
185 1 0.0849193 0.0575139 0.5 0.526404 -0.570576
186 1 0.0474104 0.20113 0.5 0.877664 -0.340448
187 1 0.135853 0.955396 0.5 0.268934 -0.630194
188 1 0.197553 0.0216999 0.5 0.847966 -0.342195
189 1 0.179322 0.0990125 0.5 0.0680955 -0.879489
190 1 0.0733714 0.27816 0.5 0.500588 -0.786718
191 1 0.093374 0.159003 0.5 0.388856 -0.402841
192 1 0.10721 0.198399 0.5 0.0118841 -0.589755
193 1 0.119872 0.0722503 0.5 0.628172 -0.749993
194 1 0.198982 0.0693112 0.5 0.336429 -0.710684
195 1 0.076604 0.148785 0.5 0.467048 -0.187411
196 1 0.15391 0.201815 0.5 0.335657 -0.440914
197 1 0.0344892 0.0162236 0.5 0.686004 -0.433595
198 1 0.141809 0.14108 0.5 0.177798 -0.672644
199 1 0.062366 0.0895402 0.5 0.656185 -0.155515
200 1 0.19419 0.134786 0.5 0.810238 -0.458608
201 1 0.113225 0.986577 0.5 0.275019 -0.809177
202 1 0.137706 0.0519807 0.5 0.419546 -0.404783
203 1 0.208604 0.15122 0.5 0.454066 -0.541345
204 1 0.161456 0.0368309 0.5 0.45721 -0.642407
205 1 0.0528094 0.0881405 0.5 0.703569 -0.108054
206 1 0.192116 0.162183 0.5 0.935585 -0.10785
207 1 0.0464353 0.126149 0.5 0.788375 -0.548283
208 1 0.116134 0.0808663 0.5 0.713465 -0.639977
209 1 0.122037 0.0447277 0.5 0.75244 -0.531625
210 1 0.120342 0.100118 0.5 0.224304 -0.652123
211 1 0.0869372 0.0385166 0.5 0.521592 -0.265564
212 1 0.0793698 0.239278 0.5 0.422172 -0.258782
213 1 0.00588924 0.103286 0.5 0.505302 -0.452289
214 1 0.0332087 0.109632 0.5 0.651082 -0.247919
215 1 0.201142 0.260587 0.5 0.891386 -0.395365
216 1 0.12963 0.0226752 0.5 -0.0160334 -0.81583
217 1 0.0584116 0.0984583 0.5 0.773986 -0.489503
218 1 0.00197142 0.112698 0.5 -0.00493803 -0.866716
219 1 0.0826018 0.141301 0.5 0.446125 -0.254451
220 1 0.0672311 0.985812 0.5 0.706743 -0.559485
221 1 0.0858498 0.0885377 0.5 0.516563 -0.463767
222 1 0.138591 0.123074 0.5 0.448217 -0.82049
223 1 0.0869157 0.26603 0.5 0.302169 -0.80123
224 1 0.00305003 0.207417 0.5 0.514414 -0.400009
225 1 0.162428 0.987932 0.5 0.484132 -0.543884
226 1 0.153164 0.18361 0.5 0.742761 -0.568823
227 1 0.0640379 0.0586289 0.5 0.518129 0.0427449
228 1 0.133717 0.984428 0.5 0.513778 -0.611953
229 1 0.197321 0.0786998 0.5 0.486136 -0.269642
230 1 0.0990583 0.103321 0.5 0.254577 -0.861619
231 1 0.164006 0.0552858 0.5 0.685884 -0.51993
232 1 0.173604 0.0543133 0.5 0.275767 -0.627846
233 1 0.0674928 0.125395 0.5 0.44632 -0.575587
234 1 0.0625245 0.191412 0.5 0.484246 -0.691618
235 1 0.0458946 0.0324265 0.5 0.474803 -0.773938
236 1 0.101212 0.0460763 0.5 0.673676 -0.291974
237 1 0.177535 0.173129 0.5 0.791056 -0.384377
238 1 0.0633522 0.161021 0.5 -0.496666 -0.843184
239 1 0.0769405 0.121537 0.5 0.200915 -0.651784
240 1 0.212542 0.0581842 0.5 0.584628 -0.736466
241 1 0.101147 0.218555 0.5 0.462743 -0.161844
242 1 0.070226 0.976063 0.5 0.516991 -0.79447
243 1 0.123391 0.175697 0.5 0.150615 -0.565975
244 1 0.084759 0.129704 0.5 0.0593672 -0.181702
245 1 0.16505 0.083579 0.5 0.620703 -0.525591
246 1 0.193527 0.208464 0.5 0.529847 -0.446176
247 1 0.0143894 0.0164331 0.5 0.23343 -0.489059
248 1 0.105781 0.129793 0.5 0.377861 -0.198138
249 1 0.0513978 0.134009 0.5 0.387048 -0.372673
250 1 0.105391 0.110894 0.5 0.636592 -0.476929
251 1 0.129237 0.992853 0.5 0.395455 -0.617159
252 1 0.113994 0.179246 0.5 -0.381931 -0.781751
253 1 0.0448702 0.0635251 0.5 0.312636 -0.110708
254 1 0.16384 0.110067 0.5 0.406869 -0.727764
255 1 0.178215 0.0434317 0.5 0.586795 -0.740586
256 1 0.141327 0.0107052 0.5 0.42105 -0.537148
257 1 0.0821957 0.0997744 0.5 -0.275818 -0.314855
258 1 0.152594 0.166656 0.5 0.602092 -0.62143
259 1 0.0548625 0.107621 0.5 0.770202 -0.620504
260 1 0.0633966 0.070892 0.5 0.608616 -0.304348
261 1 0.0599299 0.976975 0.5 0.500387 -0.757018
262 1 0.139799 0.0689477 0.5 0.551225 -0.762347
263 1 0.0788156 0.0486625 0.5 0.372871 -0.164928
264 1 0.0961925 0.00844486 0.5 -0.0364065 -0.981171
265 1 0.0860877 0.0108449 0.5 0.32935 -0.895369
266 1 0.0932946 0.213111 0.5 0.332141 -0.605681
267 1 0.183655 0.118186 0.5 0.436496 -0.140167
268 1 0.0871283 0.177631 0.5 0.745953 -0.217026
269 1 0.155153 0.157591 0.5 0.519689 -0.605014
270 1 0.123081 0.0629671 0.5 0.666957 -0.585723
271 1 0.259225 0.144268 0.5 -0.0652687 -0.7464
272 1 0.147429 0.0763272 0.5 0.313031 -0.781718
273 1 0.157277 0.00109201 0.5 0.404978 -0.527171
274 1 0.154329 0.0555283 0.5 0.259917 -0.64849
275 1 0.0615454 0.0234038 0.5 0.649391 -0.378758
276 1 0.141655 0.168532 0.5 0.49009 -0.18284
277 1 0.157713 0.26898 0.5 0.238948 -0.370601
278 1 0.136317 0.159963 0.5 0.221261 -0.0456017
279 1 0.102199 0.0651548 0.5 0.607057 -0.331405
280 1 0.187779 0.0416677 0.5 0.586548 -0.643271
281 1 0.121838 0.1186 0.5 -0.0250999 -0.865969
282 1 0.0219322 0.213175 0.5 0.74748 -0.363675
283 1 0.128269 0.125427 0.5 0.166109 -0.775247
284 1 0.168782 0.0455423 0.5 0.653971 -0.60688
285 1 0.0773165 0.0393096 0.5 0.276032 -0.38445
286 1 0.12952 0.147604 0.5 0.404515 0.181416
287 1 0.0882614 0.150495 0.5 0.872106 -0.00494818
288 1 0.0912605 0.0965865 0.5 0.124481 -0.761067
289 1 0.150008 0.192535 0.5 0.570524 -0.380527
290 1 0.205023 0.0499024 0.5 0.53346 -0.759704
291 1 0.133516 0.186022 0.5 0.384233 -0.127455
292 1 0.153636 0.0104309 0.5 0.650107 -0.621538
293 1 0.219009 0.0663469 0.5 0.750366 -0.453428
294 1 0.118035 0.053259 0.5 0.659851 -0.495865
295 1 0.215772 0.0489072 0.5 0.673809 -0.644251
296 1 0.091308 0.195918 0.5 -0.079019 -0.588601
297 1 0.0419592 0.971027 0.5 0.522578 -0.771897
298 1 0.193439 0.115066 0.5 0.503437 -0.206718
299 1 0.0503529 0.0223994 0.5 0.785379 -0.372026
300 1 0.0888746 0.0762104 0.5 0.47538 -0.719376
301 1 0.0982041 0.203426 0.5 -0.0952128 -0.651041
302 1 0.17705 0.963847 0.5 0.415773 0.0190817
303 1 0.113945 0.0639416 0.5 0.777311 -0.596325
304 1 0.062897 0.994646 0.5 0.754109 -0.604132
305 1 0.11587 0.157109 0.5 0.226905 -0.378626
306 1 0.0999242 0.075459 0.5 0.408252 -0.812121
307 1 0.14605 0.028779 0.5 0.606426 -0.627387
308 1 0.0997444 0.190792 0.5 -0.172605 -0.454405
309 1 0.159934 0.118718 0.5 0.5791 -0.674796
310 1 0.206682 0.0774186 0.5 0.322036 -0.826284
311 1 0.0547624 0.0132742 0.5 0.891619 -0.426527
312 1 0.170472 0.146834 0.5 0.0876786 -0.898403
313 1 0.13906 0.0949532 0.5 0.480691 -0.701739
314 1 0.0785341 0.00192704 0.5 0.722448 -0.612978
315 1 0.135768 0.00167277 0.5 0.655438 -0.556559
316 1 0.106021 0.210303 0.5 0.0394655 -0.479924
317 1 0.230684 0.209928 0.5 0.766087 -0.563748
318 1 0.0342543 0.511602 0.5 0.722541 -0.553005
319 1 0.00720899 0.4317 0.5 0.198455 -0.752158
320 1 0.994151 0.434125 0.5 -0.190644 -0.604188
321 1 0.111299 0.491451 0.5 0.907299 -0.289051
322 1 0.0701437 0.305665 0.5 0.866616 -0.301502
323 1 0.0123293 0.384235 0.5 0.673352 -0.588493
324 1 0.102653 0.237367 0.5 0.499215 -0.538758
325 1 0.0145813 0.311782 0.5 0.360975 -0.539324
326 1 0.089967 0.37273 0.5 0.568444 -0.54179
327 1 0.04048 0.328435 0.5 0.917716 -0.0920472
328 1 0.0799687 0.420008 0.5 0.785012 -0.4872
329 1 0.103985 0.182341 0.5 0.235283 -0.747752
330 1 0.0695145 0.287688 0.5 0.808837 -0.531861
331 1 0.0461559 0.377738 0.5 -0.33193 -0.679221
332 1 0.0538051 0.462391 0.5 0.323417 -0.226251
333 1 0.0618092 0.346052 0.5 0.762695 -0.386324
334 1 0.119886 0.279025 0.5 0.569954 -0.407436
335 1 0.0574561 0.471689 0.5 0.274264 -0.645236
336 1 0.065291 0.206881 0.5 0.660133 -0.413036
337 1 0.0260946 0.357191 0.5 0.841193 -0.468599
338 1 0.186825 0.244219 0.5 0.191915 -0.93385
339 1 0.118034 0.37877 0.5 0.449905 -0.701245
340 1 0.0749613 0.250313 0.5 0.579012 -0.755355
341 1 0.147018 0.312049 0.5 0.734965 -0.579761
342 1 0.141125 0.304509 0.5 0.648164 -0.657525
343 1 0.125159 0.27005 0.5 0.926416 -0.256353
344 1 0.114493 0.316436 0.5 0.330196 -0.871309
345 1 0.204351 0.313895 0.5 0.728875 -0.48447
346 1 0.110293 0.397697 0.5 0.458501 -0.465312
347 1 0.00298746 0.385646 0.5 0.402712 -0.818246
348 1 0.0383572 0.427036 0.5 0.683528 -0.516387
349 1 0.0863994 0.356415 0.5 0.284293 -0.0717006
350 1 0.156514 0.35786 0.5 0.50253 -0.524755
351 1 0.0658717 0.524406 0.5 0.613399 -0.565654
352 1 0.0988903 0.150306 0.5 0.337973 -0.515221
353 1 0.00820265 0.286589 0.5 0.918424 -0.1989
354 1 0.031029 0.484319 0.5 0.236278 -0.538747
355 1 0.0418906 0.300763 0.5 0.529333 -0.317999
356 1 0.15017 0.213025 0.5 0.340926 -0.665459
357 1 0.0151023 0.357689 0.5 0.80643 -0.493262
358 1 0.10647 0.429526 0.5 0.626404 -0.344598
359 1 0.197247 0.196335 0.5 0.197834 -0.810492
360 1 0.0996606 0.32955 0.5 0.317224 -0.281391
361 1 0.148488 0.286355 0.5 0.508328 -0.571066
362 1 0.122146 0.323649 0.5 0.43439 -0.793961
363 1 0.104807 0.274424 0.5 0.523227 -0.494907
364 1 0.105581 0.381117 0.5 0.538454 -0.567841
365 1 0.167475 0.248284 0.5 0.633081 -0.451823
366 1 0.993552 0.388669 0.5 0.262603 -0.91325
367 1 0.100361 0.284897 0.5 0.841772 -0.0787905
368 1 0.0766377 0.225749 0.5 0.406559 -0.323642
369 1 0.0521625 0.300029 0.5 0.163683 -0.321148
370 1 0.245724 0.310854 0.5 0.783099 -0.404715
371 1 0.982772 0.391116 0.5 0.490309 -0.755176
372 1 0.100915 0.30184 0.5 0.528007 -0.77243
373 1 0.11139 0.326369 0.5 0.103629 -0.889377
374 1 0.996308 0.242651 0.5 0.534112 -0.521697
375 1 0.176562 0.290094 0.5 0.683934 -0.19524
376 1 0.054398 0.404625 0.5 0.343216 -0.427679
377 1 0.065271 0.430672 0.5 0.445273 -0.815337
378 1 0.0984011 0.174327 0.5 0.259289 -0.709942
379 1 0.0858343 0.429249 0.5 0.887151 -0.371114
380 1 0.0516779 0.441749 0.5 0.33275 -0.537756
381 1 0.0260301 0.532225 0.5 0.77823 -0.414166
382 1 0.136302 0.222071 0.5 0.724083 -0.439656
383 1 0.0163194 0.338965 0.5 0.567939 -0.211043
384 1 0.167611 0.355598 0.5 0.658056 -0.64732
385 1 0.182151 0.162651 0.5 0.773354 -0.19152
386 1 0.0322445 0.464752 0.5 0.574025 0.267014
387 1 0.158978 0.475076 0.5 0.429459 -0.638655
388 1 0.0874678 0.328547 0.5 0.306159 0.0144309
389 1 0.0490752 0.396858 0.5 0.336712 -0.407573
390 1 0.0753834 0.353188 0.5 0.1492 0.198987
391 1 0.0526025 0.209787 0.5 0.662782 -0.574841
392 1 0.129923 0.397063 0.5 0.86926 0.0668686
393 1 0.07077 0.487862 0.5 0.050666 -0.767643
394 1 0.0429227 0.538131 0.5 -0.0434532 -0.890665
395 1 0.0134441 0.278285 0.5 0.842216 -0.247793
396 1 0.0386454 0.502111 0.5 0.5228 -0.709075
397 1 0.0845335 0.249106 0.5 0.69767 -0.473563
398 1 0.0325595 0.302614 0.5 0.655735 -0.623828
399 1 0.0417941 0.281593 0.5 0.38716 -0.815486
400 1 0.149619 0.377149 0.5 0.902216 -0.194428
401 1 0.102735 0.138916 0.5 0.490332 -0.832703
402 1 0.217715 0.26938 0.5 0.671384 -0.490321
403 1 0.0251186 0.38403 0.5 0.10778 -0.504498
404 1 0.0748899 0.295737 0.5 0.909361 -0.351579
405 1 0.0165888 0.269059 0.5 0.601908 -0.538455
406 1 0.0215737 0.463879 0.5 0.417592 -0.0135513
407 1 0.0809826 0.285697 0.5 0.517509 -0.411491
408 1 0.0381762 0.372621 0.5 0.0199737 -0.582431
409 1 0.108511 0.262938 0.5 0.79013 -0.462401
410 1 0.950011 0.327474 0.5 0.577866 -0.801484
411 1 0.0458863 0.272967 0.5 0.415519 -0.617882
412 1 0.0876199 0.205603 0.5 0.703939 -0.480551
413 1 0.00970911 0.42105 0.5 0.389729 -0.717739
414 1 0.12063 0.214468 0.5 0.333643 -0.682824
415 1 0.0635865 0.316248 0.5 0.160666 -0.4497
416 1 0.1577 0.221616 0.5 0.661386 -0.605642
417 1 0.0677175 0.449768 0.5 0.877592 -0.195022
418 1 0.147769 0.222084 0.5 0.684965 -0.431669
419 1 0.931701 0.347962 0.5 -0.0532683 -0.929813
420 1 0.103185 0.254254 0.5 0.625594 -0.32248
421 1 0.112965 0.254821 0.5 0.708102 -0.380654
422 1 0.109653 0.283204 0.5 0.434493 -0.62401
423 1 0.097082 0.399298 0.5 0.68018 -0.563143
424 1 0.229044 0.285913 0.5 0.932515 -0.0255589
425 1 0.0844918 0.382177 0.5 0.421221 -0.70189
426 1 0.0716058 0.2604 0.5 0.639381 -0.708855
427 1 0.0234648 0.437677 0.5 0.627873 -0.764869
428 1 0.0213316 0.3657 0.5 0.860448 -0.459279
429 1 0.959128 0.402165 0.5 0.674547 -0.651856
430 1 0.150174 0.42016 0.5 0.341671 -0.522727
431 1 0.130196 0.414326 0.5 0.233404 -0.658053
432 1 0.985786 0.334065 0.5 0.51632 -0.632788
433 1 0.018704 0.287148 0.5 0.677548 -0.373321
434 1 0.0825791 0.531609 0.5 0.878148 -0.0982496
435 1 0.212455 0.413971 0.5 0.637722 -0.569565
436 1 0.117193 0.24364 0.5 0.821935 -0.318235
437 1 0.154581 0.385818 0.5 0.291068 -0.494344
438 1 0.175884 0.428828 0.5 0.695128 -0.0945196
439 1 0.0667007 0.377082 0.5 0.0159787 -0.138615
440 1 0.0576657 0.37414 0.5 0.408524 -0.164038
441 1 0.0812047 0.258631 0.5 0.532714 -0.823548
442 1 0.0760153 0.313406 0.5 0.726969 -0.619698
443 1 0.952855 0.394946 0.5 0.561992 -0.78391
444 1 0.0656621 0.336046 0.5 0.611242 -0.635495
445 1 0.0714172 0.44004 0.5 0.657241 -0.68153
446 1 0.0904622 0.303682 0.5 0.707191 -0.557332
447 1 0.996412 0.332418 0.5 0.46505 -0.687476
448 1 0.0233589 0.319887 0.5 0.499309 -0.560352
449 1 0.154533 0.367518 0.5 0.553286 -0.52283
450 1 0.0354287 0.390969 0.5 -0.316219 0.0832501
451 1 0.0620799 0.441991 0.5 0.68695 -0.388418
452 1 0.168231 0.311054 0.5 0.585255 -0.700036
453 1 0.0551481 0.574648 0.5 0.500116 0.0134702
454 1 0.0563181 0.356649 0.5 0.840118 0.100786
455 1 0.161028 0.532825 0.5 -0.194172 -0.151629
456 1 0.116907 0.226044 0.5 0.555789 -0.741412
457 1 0.134606 0.250769 0.5 0.730557 -0.525246
458 1 0.0917306 0.185919 0.5 0.143344 -0.262655
459 1 0.0588487 0.288456 0.5 0.927765 -0.157918
460 1 0.043551 0.435568 0.5 0.364579 -0.584372
461 1 0.946159 0.386415 0.5 0.556242 -0.565479
462 1 0.974067 0.345596 0.5 0.470767 -0.40079
463 1 0.179394 0.513396 0.5 -0.906377 0.313843
464 1 0.0570459 0.449713 0.5 0.495601 -0.326952
465 1 0.0838138 0.410868 0.5 0.758369 -0.508902
466 1 0.117234 0.196979 0.5 0.374649 -0.713364
467 1 0.204214 0.116134 0.5 0.672265 -0.0979743
468 1 0.18019 0.237428 0.5 0.449324 -0.796811
469 1 0.996693 0.378598 0.5 0.317377 -0.917394
470 1 0.0725305 0.459419 0.5 0.73919 -0.268694
471 1 0.042481 0.363678 0.5 0.516618 -0.106417
472 1 0.130614 0.212095 0.5 0.662622 -0.417861
473 1 0.0105727 0.259602 0.5 0.924172 -0.106304
474 1 0.122976 0.406676 0.5 0.447119 -0.317393
475 1 0.06209 0.582786 0.5 0.19917 -0.687091
476 1 0.172654 0.256298 0.5 0.583647 -0.33274
477 1 0.0625651 0.366201 0.5 0.774483 -0.102422
478 1 0.0855349 0.312357 0.5 0.756455 -0.490604
479 1 0.98059 0.324201 0.5 0.839683 -0.247319
480 1 0.0543824 0.319413 0.5 0.557737 -0.577158
481 1 0.998122 0.454508 0.5 0.340439 -0.25152
482 1 0.0244012 0.277061 0.5 0.151857 -0.726338
483 1 0.0229963 0.228239 0.5 0.514703 -0.52174
484 1 0.0609163 0.327234 0.5 0.408412 -0.68299
485 1 0.059436 0.395322 0.5 0.744391 -0.398067
486 1 0.0681819 0.421076 0.5 0.343492 -0.855182
487 1 0.949061 0.403383 0.5 0.564867 -0.756512
488 1 0.24505 0.33757 0.5 0.575445 -0.719492
489 1 0.0260145 0.337699 0.5 0.810902 -0.373449
490 1 0.0351189 0.319623 0.5 0.883387 -0.175556
491 1 0.0953442 0.247282 0.5 0.556963 -0.393028
492 1 0.0447338 0.387828 0.5 -0.0941292 -0.60197
493 1 0.031462 0.419963 0.5 0.602518 -0.447166
494 1 0.0281922 0.220366 0.5 0.782837 -0.441715
495 1 0.167358 0.221497 0.5 0.525599 -0.460444
496 1 0.134931 0.202786 0.5 0.734533 -0.0879457
497 1 0.0805684 0.512667 0.5 0.553811 -0.183036
498 1 0.0259017 0.294983 0.5 0.580642 -0.531123
499 1 0.110883 0.219008 0.5 0.455714 -0.352361
500 1 0.114114 0.270955 0.5 0.588519 -0.508219
501 1 0.000844168 0.259319 0.5 0.569971 -0.526749
502 1 0.115679 0.360093 0.5 0.466998 -0.711361
503 1 0.146656 0.477841 0.5 0.351149 -0.648336
504 1 0.103958 0.319009 0.5 0.351847 -0.899476
505 1 0.194144 0.226033 0.5 0.70235 -0.501793
506 1 0.0775606 0.44928 0.5 0.731819 -0.466416
507 1 0.00161832 0.440302 0.5 0.179931 -0.366324
508 1 0.00498598 0.359531 0.5 0.656718 -0.724038
509 1 0.0483002 0.42681 0.5 0.381897 -0.563584
510 1 0.167267 0.293392 0.5 0.675989 -0.162439
511 1 0.0814505 0.391991 0.5 0.533509 -0.637324
512 1 0.123652 0.342121 0.5 0.821711 -0.411518
513 1 0.155768 0.339745 0.5 0.33373 -0.81879
514 1 0.0545299 0.480883 0.5 0.360342 -0.728927
515 1 0.160191 0.419328 0.5 0.955295 -0.162652
516 1 0.0519951 0.36587 0.5 0.811837 -0.00352701
517 1 0.0293756 0.445282 0.5 0.538679 -0.678925
518 1 0.119556 0.443776 0.5 0.555719 -0.640697
519 1 0.985779 0.43922 0.5 -0.0727227 -0.131881
520 1 0.0941777 0.530955 0.5 0.612282 -0.540205
521 1 0.0757763 0.504648 0.5 0.608863 -0.483601
522 1 0.234249 0.339935 0.5 0.731698 -0.559687
523 1 0.00925062 0.394309 0.5 0.283845 -0.889125
524 1 0.16184 0.30234 0.5 0.89776 -0.166565
525 1 0.935404 0.387225 0.5 0.849024 -0.146708
526 1 0.999663 0.396679 0.5 0.331317 -0.89394
527 1 0.104938 0.293291 0.5 0.608694 -0.486723
528 1 0.203747 0.204035 0.5 0.491582 -0.468148
529 1 0.0805808 0.304059 0.5 0.849121 -0.443906
530 1 0.216165 0.472692 0.5 -0.904925 -0.0622373
531 1 0.10593 0.483701 0.5 0.438987 -0.227708
532 1 0.0710553 0.324078 0.5 0.329906 -0.815962
533 1 0.128218 0.243938 0.5 0.663824 -0.397943
534 1 0.136276 0.432851 0.5 0.725573 -0.277378
535 1 0.0909028 0.238866 0.5 0.874652 -0.26868
536 1 0.0563202 0.337707 0.5 0.846112 -0.392815
537 1 0.108219 0.446343 0.5 0.44026 -0.703796
538 1 0.986953 0.427038 0.5 0.148584 -0.686664
539 1 0.0770732 0.375143 0.5 0.406642 -0.407791
540 1 0.147296 0.26949 0.5 0.868427 -0.288911
541 1 0.0715145 0.234038 0.5 0.560713 -0.270863
542 1 0.162481 0.46624 0.5 0.153786 -0.768833
543 1 0.232716 0.504003 0.5 -0.106328 0.194206
544 1 0.168715 0.473397 0.5 0.746042 -0.591542
545 1 0.0737307 0.384765 0.5 0.305217 -0.903877
546 1 0.00692145 0.404331 0.5 0.191928 -0.902021
547 1 0.154286 0.230776 0.5 0.849138 -0.433201
548 1 0.132731 0.175341 0.5 0.0568126 0.141022
549 1 0.1716 0.302129 0.5 0.417355 -0.52101
550 1 0.0563839 0.525001 0.5 0.70446 -0.578807
551 1 0.0937923 0.321159 0.5 0.516115 -0.409713
552 1 0.221901 0.322127 0.5 0.723956 -0.46152
553 1 0.969248 0.354893 0.5 0.727992 -0.0864564
554 1 0.122948 0.252606 0.5 0.628374 -0.610686
555 1 0.140869 0.259738 0.5 0.835404 -0.436612
556 1 0.0040661 0.295415 0.5 0.880408 -0.161473
557 1 0.175898 0.555939 0.5 0.00923368 0.175496
558 1 0.0316961 0.364859 0.5 0.814108 -0.510735
559 1 0.154774 0.248693 0.5 0.618146 -0.496957
560 1 0.0720394 0.344158 0.5 0.700331 -0.339459
561 1 0.0451576 0.473957 0.5 0.281834 -0.123165
562 1 0.0754731 0.429251 0.5 0.745548 -0.478272
563 1 0.028977 0.311574 0.5 0.631166 -0.434251
564 1 0.1018 0.390259 0.5 0.57416 -0.591594
565 1 0.0742553 0.550428 0.5 0.800891 -0.568395
566 1 0.13016 0.261094 0.5 0.778493 -0.47246
567 1 0.0650803 0.296599 0.5 0.739723 -0.479156
568 1 0.0813331 0.484204 0.5 0.286242 -0.69838
569 1 0.0361698 0.381606 0.5 -0.465663 -0.771727
570 1 0.095531 0.457169 0.5 0.550805 -0.451513
571 1 0.994399 0.360989 0.5 0.671684 -0.581771
572 1 0.0593715 0.217241 0.5 0.694823 -0.577669
573 1 0.0202448 0.303787 0.5 0.688227 -0.220675
574 1 0.107768 0.308582 0.5 0.485061 -0.796807
575 1 0.19671 0.269701 0.5 0.850044 -0.45939
576 1 0.0361407 0.355606 0.5 0.831464 -0.454769
577 1 0.0196671 0.329546 0.5 0.489866 -0.832154
578 1 0.0544535 0.384868 0.5 0.294185 -0.354798
579 1 0.0957456 0.502971 0.5 0.623995 -0.674853
580 1 0.196316 0.333971 0.5 0.677475 -0.681922
581 1 0.0721693 0.411527 0.5 0.614641 -0.693639
582 1 0.143278 0.322394 0.5 0.794247 -0.295734
583 1 0.124771 0.204102 0.5 0.362817 -0.836312
584 1 0.0519373 0.347089 0.5 0.797878 0.194429
585 1 0.00279704 0.413326 0.5 0.221179 -0.650066
586 1 0.0778171 0.269293 0.5 0.429122 -0.713698
587 1 0.0667159 0.270529 0.5 0.674928 -0.511065
588 1 0.0605106 0.305914 0.5 0.218688 -0.217778
589 1 0.164111 0.483582 0.5 0.931022 -0.194895
590 1 0.112079 0.235359 0.5 0.703278 -0.584163
591 1 0.235539 0.413045 0.5 0.486872 -0.194027
592 1 0.0391732 0.40232 0.5 -0.0842332 -0.0737898
593 1 0.212592 0.340746 0.5 0.8537 -0.481225
594 1 0.0971118 0.264637 0.5 0.579743 -0.663725
595 1 0.0468095 0.337553 0.5 0.948741 -0.0216127
596 1 0.064012 0.386512 0.5 0.613535 -0.289879
597 1 0.119675 0.396248 0.5 0.717028 -0.152565
598 1 0.183113 0.374077 0.5 0.515053 -0.0969281
599 1 0.151295 0.258983 0.5 0.532918 -0.725328
600 1 0.137275 0.496136 0.5 0.575292 -0.611597
601 1 0.162038 0.256029 0.5 0.506858 -0.468507
602 1 0.0447951 0.32 0.5 0.939189 -0.25482
603 1 0.141821 0.231497 0.5 0.498642 -0.510751
604 1 0.090746 0.284382 0.5 0.775589 -0.185979
605 1 0.123956 0.58439 0.5 0.0385507 -0.286254
606 1 0.153677 0.320534 0.5 0.794423 -0.251661
607 1 0.0202507 0.260212 0.5 0.663391 -0.451046
608 1 0.159032 0.37586 0.5 0.560569 -0.475606
609 1 0.0562526 0.270009 0.5 0.483393 -0.562021
610 1 0.0344731 0.410938 0.5 0.343006 -0.196822
611 1 0.129591 0.305016 0.5 0.496492 -0.730211
612 1 0.0197002 0.348044 0.5 0.841186 -0.0995628
613 1 0.0494765 0.310577 0.5 0.467552 -0.44966
614 1 0.149136 0.523405 0.5 0.198605 -0.118818
615 1 0.985657 0.31507 0.5 0.676546 -0.266351
616 1 0.188215 0.199758 0.5 0.362707 -0.405485
617 1 0.094781 0.274195 0.5 0.497554 -0.545602
618 1 0.0414766 0.417771 0.5 0.535855 -0.665014
619 1 0.0491634 0.288759 0.5 0.478707 -0.208206
620 1 0.149708 0.240292 0.5 0.841459 -0.401156
621 1 0.0698987 0.394018 0.5 0.620424 -0.776155
622 1 0.0843252 0.276215 0.5 0.352678 -0.90174
623 1 0.122508 0.367821 0.5 0.582341 -0.456779
624 1 0.140556 0.441825 0.5 0.752703 -0.447553
625 1 0.253403 0.47986 0.5 -0.704604 0.305598
626 1 0.113994 0.408532 0.5 0.61031 -0.449128
627 1 0.0874201 0.400951 0.5 0.783007 -0.530892
628 1 0.955566 0.308083 0.5 0.348647 -0.53906
629 1 0.1396 0.24109 0.5 0.416042 -0.541156