ITEM: TIMESTEP
0
ITEM: NUMBER OF ATOMS
10180
ITEM: BOX BOUNDS pp pp pp
-5.8359999999999999e+01 5.8359999999999999e+01
-5.8359999999999999e+01 5.8359999999999999e+01
-5.0000000000000000e-01 5.0000000000000000e-01
ITEM: ATOMS id type xs ys zs c_002[1] c_002[2]
1 1 0.098216 0.147984 0.5 -0.0496999 -0.928478
2 1 0.150416 0.137306 0.5 0.602394 -0.418354
3 1 0.148777 0.00711647 0.5 0.398336 -0.86881
4 1 0.16335 0.153098 0.5 0.150954 -0.618584
5 1 0.206057 0.117339 0.5 0.764537 -0.323222
6 1 0.157159 0.144784 0.5 0.599754 -0.526311
7 1 0.0679991 0.233355 0.5 0.610563 -0.699199
8 1 0.194569 0.0908818 0.5 0.328714 -0.802184
9 1 0.213822 0.0595349 0.5 0.098721 -0.365818
10 1 0.999905 0.00158206 0.5 0.57116 -0.60354
11 1 0.0124201 0.972658 0.5 0.521613 -0.791643
12 1 0.150921 0.247957 0.5 0.0728765 -0.316889
13 1 0.101413 0.0229101 0.5 0.515175 -0.716806
14 1 0.110225 0.0860038 0.5 -0.107995 0.112895
15 1 0.190062 0.971449 0.5 0.613386 -0.698587
16 1 0.164519 0.180653 0.5 0.530697 -0.700525
17 1 0.018704 0.0397501 0.5 0.292135 0.140502
18 1 0.0286798 0.978751 0.5 0.219217 -0.772343
19 1 0.120554 0.0868761 0.5 0.464843 0.254501
20 1 0.0450807 0.108579 0.5 0.643778 -0.51426
21 1 0.194726 0.17292 0.5 -0.0298431 -0.782234
22 1 0.193391 0.154764 0.5 0.00910638 -0.669287
23 1 0.281263 0.0387605 0.5 0.361186 -0.463939
24 1 0.0648819 0.105528 0.5 0.667522 -0.640984
25 1 0.225831 0.0869078 0.5 0.644721 -0.328384
26 1 0.139358 0.0843184 0.5 -0.256404 -0.869536
27 1 0.0477699 0.0690805 0.5 0.146889 -0.950004
28 1 0.246296 0.300786 0.5 0.544311 -0.558481
29 1 0.18017 0.250203 0.5 0.197393 -0.687596
30 1 0.197078 0.0249824 0.5 0.670294 -0.555662
31 1 0.172139 0.130047 0.5 0.171487 -0.37633
32 1 0.153999 0.182223 0.5 0.523327 -0.749664
33 1 0.0497227 0.180091 0.5 0.553601 -0.759015
34 1 0.133044 0.15847 0.5 0.676619 -0.251627
35 1 0.128907 0.148814 0.5 0.209165 -0.0717827
36 1 0.0999583 0.175477 0.5 0.27526 -0.698506
37 1 0.163038 0.0954414 0.5 0.00231205 -0.816638
38 1 0.123215 0.159142 0.5 0.595285 -0.558672
39 1 0.0719919 0.278385 0.5 0.450706 -0.632845
40 1 0.19495 0.117328 0.5 0.781046 -0.529254
41 1 0.212046 0.148487 0.5 0.033924 -0.97634
42 1 0.217666 0.196855 0.5 0.448291 -0.74928
43 1 0.168101 0.144157 0.5 0.231542 -0.336828
44 1 0.994365 0.0235725 0.5 -0.121775 -0.702264
45 1 0.14164 0.0730731 0.5 0.198568 -0.854015
46 1 0.0702149 0.178713 0.5 0.559788 -0.689331
47 1 0.128799 0.179646 0.5 0.139125 -0.617729
48 1 0.16204 0.0684055 0.5 0.428952 -0.830004
49 1 0.0860196 0.0731727 0.5 0.249345 -0.722808
50 1 0.130151 0.0860437 0.5 0.232005 -0.640999
51 1 0.165395 0.123353 0.5 -0.445499 -0.762232
52 1 0.170543 0.224746 0.5 0.506704 -0.827119
53 1 0.202676 0.035502 0.5 0.380502 -0.63927
54 1 0.120518 0.0463686 0.5 0.646785 -0.0656322
55 1 0.134449 0.130547 0.5 0.453637 -0.567718
56 1 0.186733 0.229443 0.5 0.289102 -0.874057
57 1 0.110478 0.0761104 0.5 0.154338 -0.197584
58 1 0.0711386 0.981371 0.5 0.462633 -0.453211
59 1 0.0873799 0.0629104 0.5 0.0864655 -0.86918
60 1 0.160342 0.226275 0.5 0.504845 -0.825988
61 1 0.209222 0.242068 0.5 0.211785 -0.197034
62 1 0.146445 0.0911686 0.5 -0.152389 -0.949736
63 1 0.103202 0.163344 0.5 -0.0315271 -0.687154
64 1 0.137595 0.120742 0.5 -0.226804 -0.936595
65 1 0.212088 0.0988865 0.5 0.444307 -0.451693
66 1 0.1467 0.146603 0.5 0.0108894 -0.832177
67 1 0.181694 0.130062 0.5 0.605821 -0.472753
68 1 0.167483 0.197232 0.5 0.163897 -0.916856
69 1 0.218378 0.025271 0.5 0.0367392 -0.0684044
70 1 0.0403364 0.181637 0.5 0.219801 -0.9005
71 1 0.133588 0.240392 0.5 0.384954 -0.816409
72 1 0.111511 0.135158 0.5 -0.0662999 -0.919184
73 1 0.184402 0.0926667 0.5 0.336716 -0.801934
74 1 0.100132 0.117837 0.5 -0.173556 -0.136595
75 1 0.215363 0.137258 0.5 -0.144863 -0.335198
76 1 0.1796 0.111092 0.5 0.509008 -0.734088
77 1 0.124521 0.0651129 0.5 0.678216 -0.562642
78 1 0.0897463 0.110049 0.5 0.08035 -0.633879
79 1 0.129413 0.138818 0.5 0.184438 -0.370075
80 1 0.264922 0.118716 0.5 -0.472164 -0.801404
81 1 0.222021 0.230913 0.5 0.537384 -0.636657
82 1 0.0309394 0.183204 0.5 0.389532 -0.859032
83 1 0.182022 0.268596 0.5 -0.271342 -0.804607
84 1 0.192058 0.100078 0.5 0.134209 -0.975042
85 1 0.0492343 0.0982869 0.5 0.268611 -0.776175
86 1 0.200529 0.12515 0.5 0.706191 -0.314702
87 1 0.176724 0.139468 0.5 0.130143 -0.385363
88 1 0.0875034 0.0346315 0.5 0.464083 -0.851423
89 1 0.126892 0.207528 0.5 0.165017 -0.754714
90 1 0.996516 0.171827 0.5 0.488906 -0.678267
91 1 0.103086 0.0400891 0.5 -0.0146745 -0.755535
92 1 0.114009 0.161567 0.5 0.391104 -0.676349
93 1 0.19308 0.988851 0.5 0.16725 -0.747001
94 1 0.0466328 0.987397 0.5 0.424651 -0.683137
95 1 0.0986799 0.201602 0.5 0.562577 -0.75898
96 1 0.121893 0.132346 0.5 0.314946 -0.517754
97 1 0.0438125 0.1992 0.5 0.827045 -0.451887
98 1 0.0936343 0.0424125 0.5 0.236516 -0.912573
99 1 0.214491 0.126245 0.5 0.106596 -0.00457758
100 1 0.222113 0.146249 0.5 0.395662 -0.62304
101 1 0.105559 0.153996 0.5 -0.165277 -0.933279
102 1 0.0884065 0.00791378 0.5 0.593127 -0.51443
103 1 0.139354 0.111315 0.5 0.283491 -0.734342
104 1 0.0719292 0.252527 0.5 0.204251 -0.875019
105 1 0.0638036 0.170295 0.5 0.710381 -0.229595
106 1 0.122502 0.215919 0.5 -0.0362755 -0.819979
107 1 0.0262627 0.122328 0.5 0.277219 -0.358944
108 1 0.0945327 0.167374 0.5 0.0994472 -0.140844
109 1 0.147705 0.0529866 0.5 0.46625 -0.789585
110 1 0.101264 0.138347 0.5 -0.0165666 -0.886875
111 1 0.22981 0.946312 0.5 0.330336 -0.761676
112 1 0.118279 0.234682 0.5 0.365274 -0.752634
113 1 0.195165 0.14541 0.5 -0.483665 -0.812076
114 1 0.115327 0.209734 0.5 0.404266 -0.721878
115 1 0.0958485 0.0714236 0.5 0.165229 -0.733895
116 1 0.0541012 0.0398678 0.5 0.154095 -0.265055
117 1 0.0597473 0.178751 0.5 0.657928 -0.57432
118 1 0.221143 0.0138198 0.5 -0.059555 -0.380743
119 1 0.151157 0.0705456 0.5 0.375065 -0.788067
120 1 0.157843 0.117298 0.5 -0.0290088 -0.659738
121 1 0.0507245 0.0599104 0.5 0.126657 -0.923573
122 1 0.308773 0.218431 0.5 0.76638 -0.169399
123 1 0.158575 0.0776426 0.5 0.118601 -0.848368
124 1 0.187225 0.0551861 0.5 0.0865912 -0.750482
125 1 0.0349737 0.0361007 0.5 -0.0309325 0.431515
126 1 0.13211 0.990156 0.5 0.298835 -0.470567
127 1 0.175366 0.00947425 0.5 0.195811 -0.698755
128 1 0.149846 0.0257604 0.5 0.744095 -0.444876
129 1 0.156894 0.127876 0.5 0.0481329 -0.359658
130 1 0.110952 0.228235 0.5 0.179507 -0.592653
131 1 0.127108 0.123963 0.5 0.193508 -0.364144
132 1 0.174581 0.057453 0.5 0.205198 -0.740913
133 1 0.143419 0.102248 0.5 0.29922 -0.76079
134 1 0.09757 0.0616271 0.5 0.0839864 -0.819638
135 1 0.189607 0.109278 0.5 0.485194 -0.759026
136 1 0.0448931 0.0148999 0.5 0.207551 -0.499625
137 1 0.015796 0.963528 0.5 0.478467 -0.799724
138 1 0.180045 0.222772 0.5 0.298307 -0.858793
139 1 0.0659084 0.0383643 0.5 0.786656 -0.190784
140 1 0.105974 0.263858 0.5 0.712649 -0.0809867
141 1 0.253193 0.236572 0.5 0.368889 -0.458693
142 1 0.161607 0.993974 0.5 0.586389 -0.692445
143 1 0.146331 0.23836 0.5 0.374092 -0.535912
144 1 0.161519 0.10468 0.5 -0.0864685 -0.734809
145 1 0.164707 0.0147134 0.5 0.233411 -0.542296
146 1 0.12032 0.0769777 0.5 0.333022 -0.282739
147 1 0.1757 0.204086 0.5 -0.187419 -0.918103
148 1 0.182168 0.158631 0.5 0.502385 -0.678286
149 1 0.101898 0.255361 0.5 0.452829 -0.279674
150 1 0.168044 0.113457 0.5 0.208991 -0.870564
151 1 0.212068 0.032418 0.5 0.285877 -0.225195
152 1 0.18658 0.138193 0.5 0.128053 -0.654354
153 1 0.188934 0.22009 0.5 0.388959 -0.702769
154 1 0.178137 0.0484898 0.5 0.345253 -0.680734
155 1 0.168484 0.0765554 0.5 0.398298 -0.694054
156 1 0.195801 0.135189 0.5 0.00618479 -0.550384
157 1 0.107098 0.986673 0.5 0.68129 -0.628126
158 1 0.107932 0.200281 0.5 0.657004 -0.358129
159 1 0.074155 0.149728 0.5 0.785633 -0.469367
160 1 0.0305015 0.00662687 0.5 0.516589 -0.430731
161 1 0.137448 0.0941864 0.5 0.32114 -0.762283
162 1 0.0737743 0.0186423 0.5 0.392791 -0.673398
163 1 0.193713 0.0633922 0.5 0.666561 -0.608005
164 1 0.140013 0.277368 0.5 0.778468 -0.546934
165 1 0.161227 0.0415053 0.5 0.71566 -0.441315
166 1 0.164551 0.0584165 0.5 0.0453717 -0.898812
167 1 0.159095 0.1713 0.5 0.637897 -0.610851
168 1 0.105225 0.0676415 0.5 0.128231 -0.642072
169 1 0.21294 0.176927 0.5 0.707923 -0.436994
170 1 0.101806 0.978526 0.5 0.717501 -0.606376
171 1 0.199145 0.107629 0.5 0.601733 -0.556363
172 1 0.1564 0.235078 0.5 0.423429 -0.658988
173 1 0.181618 0.0392875 0.5 0.483233 -0.533736
174 1 0.16752 0.048833 0.5 0.532921 -0.658069
175 1 0.0799667 0.157487 0.5 0.598187 0.160875
176 1 0.0269914 0.192013 0.5 0.468535 -0.705303
177 1 0.302354 0.237269 0.5 0.533813 -0.490308
178 1 0.174145 0.178191 0.5 0.229912 -0.897964
179 1 0.184956 0.119051 0.5 0.643845 -0.691083
180 1 0.15733 0.0877819 0.5 -0.0083588 -0.839506
181 1 0.119833 0.141534 0.5 -0.233419 -0.907727
182 1 0.0804965 0.112259 0.5 0.367519 -0.828238
183 1 0.0199009 0.953993 0.5 0.409987 -0.780562
184 1 0.23009 0.0427862 0.5 -0.150054 0.491319
185 1 0.164077 0.135296 0.5 -0.056518 0.132904
186 1 0.0517851 0.225517 0.5 0.756223 -0.480209
187 1 0.161801 0.920854 0.5 0.334118 -0.857232
188 1 0.225256 0.058619 0.5 0.330218 -0.202884
189 1 0.207074 0.132617 0.5 -0.341447 -0.247706
190 1 0.0878309 0.312732 0.5 0.0126349 -0.716431
191 1 0.106829 0.182175 0.5 0.327816 -0.703126
192 1 0.114355 0.243351 0.5 0.219528 -0.687739
193 1 0.151413 0.108801 0.5 0.105937 -0.75853
194 1 0.225434 0.126517 0.5 0.165349 -0.465422
195 1 0.120159 0.171956 0.5 0.319124 -0.635135
196 1 0.200108 0.24444 0.5 0.00540529 -0.872729
197 1 0.0428323 0.0517118 0.5 -0.0387123 -0.573474
198 1 0.171326 0.187642 0.5 0.151243 -0.941053
199 1 0.124214 0.104677 0.5 0.475915 -0.413479
200 1 0.253703 0.181745 0.5 0.417945 -0.650329
201 1 0.137839 0.0542876 0.5 0.455357 -0.747223
202 1 0.182544 0.101955 0.5 0.103339 -0.88613
203 1 0.244706 0.13436 0.5 -0.295171 -0.937245
204 1 0.179229 0.000713037 0.5 0.556591 -0.794574
205 1 0.0612297 0.115334 0.5 0.814281 -0.487912
206 1 0.200238 0.218583 0.5 0.186643 -0.867322
207 1 0.0435941 0.153359 0.5 0.29572 -0.694376
208 1 0.141865 0.0449001 0.5 0.770668 -0.599342
209 1 0.166602 0.0860105 0.5 0.392705 -0.793821
210 1 0.145904 0.127707 0.5 0.280802 -0.356105
211 1 0.0732 0.131515 0.5 0.89397 0.00372965
212 1 0.0652532 0.271741 0.5 0.320415 -0.900719
213 1 0.0266069 0.165883 0.5 0.329151 -0.795435
214 1 0.0558168 0.124653 0.5 0.846776 -0.125306
215 1 0.334752 0.341149 0.5 -0.183362 -0.296549
216 1 0.184332 0.0657881 0.5 0.310841 -0.810204
217 1 0.0849848 0.100535 0.5 0.302798 -0.663799
218 1 0.0172195 0.168419 0.5 0.55311 -0.740562
219 1 0.0925503 0.193903 0.5 0.584585 -0.745335
220 1 0.0825826 0.998385 0.5 0.793796 -0.435106
221 1 0.109013 0.144225 0.5 -0.206837 -0.866826
222 1 0.139537 0.139734 0.5 0.360996 -0.362401
223 1 0.122501 0.296813 0.5 0.485507 -0.711865
224 1 0.00956313 0.242721 0.5 0.409913 -0.385895
225 1 0.208339 0.023229 0.5 0.365205 -0.271293
226 1 0.163679 0.216456 0.5 -0.0720522 -0.855199
227 1 0.0748425 0.0752111 0.5 0.318505 -0.876245
228 1 0.171262 0.0215415 0.5 0.114261 -0.887153
229 1 0.205084 0.141899 0.5 -0.423818 -0.828304
230 1 0.10881 0.113479 0.5 0.0437065 -0.533698
231 1 0.209844 0.108698 0.5 0.546752 -0.521532
232 1 0.220191 0.107037 0.5 0.523503 -0.633414
233 1 0.0933147 0.131161 0.5 0.482326 -0.690193
234 1 0.0788525 0.23272 0.5 0.655173 -0.651123
235 1 0.067748 0.0663976 0.5 0.691507 -0.670893
236 1 0.11479 0.0951343 0.5 0.314691 -0.315673
237 1 0.196281 0.227665 0.5 0.438486 -0.842675
238 1 0.0672941 0.187894 0.5 0.636545 -0.683023
239 1 0.104519 0.128207 0.5 0.0297681 -0.574721
240 1 0.177802 0.0852009 0.5 0.398412 -0.620337
241 1 0.121342 0.252367 0.5 0.237013 -0.894494
242 1 0.0906666 0.0246304 0.5 0.563751 -0.803448
243 1 0.153765 0.219339 0.5 0.186016 -0.758368
244 1 0.0832509 0.168576 0.5 0.462104 -0.028533
245 1 0.198697 0.164321 0.5 0.0791654 -0.377411
246 1 0.210842 0.27264 0.5 0.438325 -0.578353
247 1 0.0579918 0.0669428 0.5 0.538827 -0.680398
248 1 0.113285 0.192537 0.5 0.381596 -0.310015
249 1 0.0539072 0.170172 0.5 0.800828 0.023746
250 1 0.117183 0.150556 0.5 0.151449 -0.830049
251 1 0.141104 0.998807 0.5 0.313513 -0.874211
252 1 0.120441 0.225186 0.5 -0.0986099 -0.921093
253 1 0.081761 0.0834678 0.5 0.523419 -0.838636
254 1 0.139025 0.176367 0.5 0.018018 -0.761218
255 1 0.171899 0.103278 0.5 0.118092 -0.731843
256 1 0.155987 0.0328599 0.5 0.631677 -0.482067
257 1 0.12918 0.11268 0.5 0.496817 -0.536965
258 1 0.181476 0.184851 0.5 -0.191537 -0.886401
259 1 0.0780066 0.122578 0.5 0.6357 -0.471157
260 1 0.0683911 0.0954285 0.5 0.710035 -0.661464
261 1 0.138118 0.982367 0.5 0.114492 -0.137445
262 1 0.191147 0.126995 0.5 0.512103 -0.679204
263 1 0.125456 0.0951097 0.5 0.509846 -0.417719
264 1 0.128137 0.0553829 0.5 0.660143 -0.706858
265 1 0.114572 0.0672909 0.5 0.716133 -0.540523
266 1 0.09899 0.228962 0.5 0.600906 -0.66391
267 1 0.175426 0.150357 0.5 0.102197 -0.815806
268 1 0.105591 0.209991 0.5 0.330871 -0.761504
269 1 0.148508 0.173824 0.5 0.364685 -0.778425
270 1 0.135872 0.0643993 0.5 0.500948 -0.681571
271 1 0.29145 0.170747 0.5 -0.182705 -0.961802
272 1 0.174702 0.1204 0.5 0.389828 -0.74557
273 1 0.188504 0.0455957 0.5 0.021446 -0.786448
274 1 0.173632 0.0674234 0.5 0.310072 -0.641003
275 1 0.108218 0.0583671 0.5 0.280857 -0.838727
276 1 0.131582 0.22351 0.5 0.103562 -0.883469
277 1 0.172871 0.243421 0.5 0.280362 -0.667143
278 1 0.146225 0.212346 0.5 0.119093 -0.675594
279 1 0.119137 0.112659 0.5 0.770312 -0.384394
280 1 0.202645 0.0978147 0.5 0.486006 -0.491461
281 1 0.129775 0.169121 0.5 -0.0383943 -0.757024
282 1 0.0401811 0.254155 0.5 0.507773 -0.4799
283 1 0.134519 0.213218 0.5 0.126077 -0.837279
284 1 0.177373 0.0297731 0.5 0.587191 -0.547681
285 1 0.0916024 0.081928 0.5 0.711048 -0.631237
286 1 0.151322 0.191697 0.5 0.254971 -0.922882
287 1 0.0427293 0.170833 0.5 0.442969 -0.236185
288 1 0.138327 0.150592 0.5 0.174374 -0.206083
289 1 0.192251 0.23708 0.5 0.254563 -0.861623
290 1 0.226856 0.117124 0.5 0.235101 -0.639711
291 1 0.141638 0.220583 0.5 0.405463 -0.757873
292 1 0.155037 0.014136 0.5 0.639496 -0.52564
293 1 0.219967 0.0767174 0.5 0.656583 -0.286322
294 1 0.185474 0.00800665 0.5 0.654768 -0.721068
295 1 0.200064 0.0726878 0.5 0.191587 -0.551494
296 1 0.131241 0.250125 0.5 -0.114098 -0.909885
297 1 0.0631596 0.975395 0.5 0.226947 -0.628386
298 1 0.23688 0.126352 0.5 -0.00996174 -0.514068
299 1 0.0769596 0.0653704 0.5 0.313151 -0.753889
300 1 0.116518 0.121739 0.5 0.191011 -0.286533
301 1 0.103712 0.22015 0.5 0.441922 -0.708357
302 1 0.25128 0.944066 0.5 0.784425 -0.331435
303 1 0.0975804 0.0897171 0.5 0.477941 -0.764587
304 1 0.0810922 0.055389 0.5 0.159614 -0.83508
305 1 0.137325 0.203859 0.5 0.17874 -0.891973
306 1 0.13373 0.103163 0.5 0.639102 -0.660552
307 1 0.198958 0.082329 0.5 -0.0858419 -0.638218
308 1 0.118409 0.262 0.5 0.653503 -0.604355
309 1 0.154062 0.154533 0.5 -0.0224705 -0.899334
310 1 0.206851 0.0888689 0.5 0.336337 -0.505102
311 1 0.0623118 0.0288697 0.5 0.30343 -0.234458
312 1 0.140594 0.166759 0.5 0.112702 -0.888351
313 1 0.185565 0.148086 0.5 -0.145014 -0.897594
314 1 0.126436 0.0380449 0.5 0.8374 -0.223812
315 1 0.172167 0.0406082 0.5 0.832148 -0.299539
316 1 0.111949 0.253792 0.5 0.506455 -0.695583
317 1 0.282908 0.257513 0.5 0.667005 -0.633589
318 1 0.0275751 0.516232 0.5 0.16278 -0.493787
319 1 0.0133264 0.468343 0.5 0.379422 -0.28939
320 1 0.00704075 0.436611 0.5 0.769881 -0.424337
321 1 0.123736 0.462075 0.5 0.17574 -0.733717
322 1 0.0785395 0.359261 0.5 0.771683 -0.387674
323 1 0.0159884 0.416782 0.5 0.868246 -0.241647
324 1 0.115912 0.28975 0.5 0.34982 -0.885461
325 1 0.0082712 0.334032 0.5 0.464712 -0.796446
326 1 0.0904996 0.403239 0.5 0.529017 -0.63885
327 1 0.0768153 0.341463 0.5 0.473878 -0.510063
328 1 0.0950982 0.422151 0.5 0.464649 -0.486389
329 1 0.12774 0.232682 0.5 0.407296 -0.864914
330 1 0.0956973 0.319186 0.5 0.251247 -0.369384
331 1 0.0486487 0.411305 0.5 0.593408 -0.486356
332 1 0.114689 0.490539 0.5 -0.223808 -0.563732
333 1 0.0926674 0.39241 0.5 0.376925 -0.229995
334 1 0.131736 0.323646 0.5 0.62897 -0.705402
335 1 0.0904523 0.469072 0.5 0.502185 -0.534201
336 1 0.0852265 0.239902 0.5 0.539728 -0.771208
337 1 0.0508281 0.382603 0.5 0.702194 -0.319523
338 1 0.202853 0.23446 0.5 0.427203 -0.777865
339 1 0.0902064 0.431752 0.5 0.864297 -0.106793
340 1 0.0626569 0.280917 0.5 0.530657 -0.490108
341 1 0.171526 0.298656 0.5 0.869839 -0.281791
342 1 0.130257 0.260079 0.5 0.227735 -0.406806
343 1 0.12253 0.32605 0.5 0.64532 -0.523857
344 1 0.219027 0.282612 0.5 0.219826 0.46159
345 1 0.365166 0.341082 0.5 -0.0386039 -0.452361
346 1 0.125496 0.435339 0.5 -0.163746 -0.454581
347 1 0.996382 0.419205 0.5 0.359783 -0.680364
348 1 0.0604327 0.435887 0.5 0.525196 -0.377183
349 1 0.0475507 0.363696 0.5 0.375528 -0.858745
350 1 0.201238 0.378377 0.5 0.316351 -0.686523
351 1 0.0691458 0.570609 0.5 0.216931 -0.492384
352 1 0.0951456 0.157391 0.5 -0.157082 -0.64908
353 1 0.0386341 0.31008 0.5 0.457712 -0.394412
354 1 0.0227428 0.494291 0.5 -0.031687 -0.594827
355 1 0.0541021 0.3439 0.5 0.111711 -0.923379
356 1 0.193807 0.263313 0.5 -0.327868 -0.550321
357 1 0.0590671 0.409841 0.5 0.468038 -0.842285
358 1 0.167364 0.416535 0.5 -0.0520918 -0.735673
359 1 0.262752 0.232437 0.5 0.15837 -0.462537
360 1 0.145945 0.380681 0.5 -0.0359738 -0.170366
361 1 0.175108 0.261207 0.5 0.476033 -0.695827
362 1 0.144303 0.340183 0.5 0.79107 -0.421414
363 1 0.11227 0.299488 0.5 0.679928 -0.607628
364 1 0.142765 0.424185 0.5 0.202444 0.0918196
365 1 0.189978 0.246638 0.5 0.165539 -0.882996
366 1 0.0216007 0.425665 0.5 0.382409 -0.459222
367 1 0.118639 0.307975 0.5 0.128314 -0.908284
368 1 0.0585249 0.234746 0.5 0.593252 -0.698484
369 1 0.0646096 0.342458 0.5 0.593355 -0.612737
370 1 0.264054 0.362494 0.5 -0.337857 -0.765594
371 1 0.984714 0.392159 0.5 -0.0160971 -0.962368
372 1 0.0861695 0.339629 0.5 0.56239 -0.796955
373 1 0.164637 0.364279 0.5 -0.121639 -0.493976
374 1 0.0102485 0.277323 0.5 0.283529 -0.528138
375 1 0.206836 0.281281 0.5 0.509314 0.199311
376 1 0.0667602 0.417989 0.5 0.409914 -0.843943
377 1 0.0904199 0.507294 0.5 0.22021 -0.736958
378 1 0.105156 0.236268 0.5 0.0596493 -0.430907
379 1 0.0566345 0.463656 0.5 0.920227 -0.24825
380 1 0.0671643 0.46243 0.5 0.677353 -0.459957
381 1 0.993608 0.593246 0.5 0.80511 -0.280266
382 1 0.143954 0.268566 0.5 0.779563 -0.36856
383 1 0.0152633 0.368152 0.5 0.064066 -0.847227
384 1 0.191583 0.379215 0.5 0.708725 -0.572246
385 1 0.187154 0.200376 0.5 0.321216 -0.492492
386 1 0.0618746 0.503088 0.5 -0.0180677 -0.240918
387 1 0.140188 0.497058 0.5 0.25984 -0.95509
388 1 0.103926 0.375989 0.5 0.512481 -0.207579
389 1 0.0884321 0.47955 0.5 0.192987 -0.710142
390 1 0.0981032 0.384535 0.5 0.900007 0.33069
391 1 0.0480154 0.235682 0.5 0.668796 -0.656847
392 1 0.170882 0.383231 0.5 0.717334 -0.310116
393 1 0.0621049 0.545456 0.5 0.71769 -0.395188
394 1 0.0291571 0.534406 0.5 0.530568 -0.739932
395 1 0.042802 0.299967 0.5 0.33557 -0.392195
396 1 0.031001 0.597982 0.5 0.391621 -0.799365
397 1 0.0876621 0.286171 0.5 0.246421 -0.588999
398 1 0.0609345 0.351041 0.5 0.341631 -0.845237
399 1 0.0631058 0.326715 0.5 0.397089 -0.545173
400 1 0.133793 0.421427 0.5 -0.0580523 0.219922
401 1 0.10851 0.171977 0.5 0.377218 -0.465254
402 1 0.262525 0.290525 0.5 0.688269 -0.284844
403 1 0.0434777 0.402183 0.5 0.506318 -0.0920485
404 1 0.0949603 0.292229 0.5 0.332229 -0.734802
405 1 0.0347597 0.292832 0.5 0.356687 -0.857982
406 1 0.994029 0.546958 0.5 0.187911 -0.573258
407 1 0.10297 0.329608 0.5 0.535563 -0.225469
408 1 0.0703738 0.434643 0.5 0.609345 -0.507826
409 1 0.154878 0.26726 0.5 0.392438 -0.557663
410 1 0.964566 0.349549 0.5 0.474229 -0.649922
411 1 0.0694334 0.307962 0.5 0.114078 -0.909917
412 1 0.0866282 0.212129 0.5 0.534861 -0.713883
413 1 0.0293559 0.458164 0.5 0.481269 -0.746716
414 1 0.124012 0.243047 0.5 0.390788 -0.750533
415 1 0.106174 0.366021 0.5 0.353253 -0.696098
416 1 0.153934 0.293062 0.5 0.505906 -0.773398
417 1 0.0572796 0.554879 0.5 0.756232 -0.304021
418 1 0.233165 0.231315 0.5 0.406236 -0.525479
419 1 0.909258 0.364732 0.5 0.463713 -0.699836
420 1 0.0830442 0.321647 0.5 0.501185 -0.753071
421 1 0.129417 0.278002 0.5 0.884172 -0.380117
422 1 0.10676 0.311065 0.5 0.111984 -0.27927
423 1 0.0794081 0.404973 0.5 0.386897 -0.696017
424 1 0.251108 0.290617 0.5 0.548908 -0.61565
425 1 0.0941751 0.440834 0.5 0.890009 -0.105874
426 1 0.0832605 0.294752 0.5 0.243053 -0.839131
427 1 0.0175041 0.476758 0.5 0.237337 -0.358188
428 1 0.0408171 0.428864 0.5 0.447005 -0.599671
429 1 0.96948 0.413953 0.5 0.516123 -0.721679
430 1 0.188197 0.424062 0.5 0.523606 -0.717236
431 1 0.185106 0.393017 0.5 0.253947 0.376429
432 1 0.993165 0.375403 0.5 0.45774 -0.309186
433 1 0.0695379 0.334278 0.5 0.462127 -0.657817
434 1 0.0811549 0.542542 0.5 0.280415 -0.0011176
435 1 0.249167 0.444338 0.5 0.296748 -0.904735
436 1 0.0913567 0.273931 0.5 0.336683 -0.914
437 1 0.18212 0.38137 0.5 0.582605 -0.222129
438 1 0.246369 0.4066 0.5 -0.0831366 -0.973581
439 1 0.0707113 0.453283 0.5 0.701728 -0.695855
440 1 0.098404 0.478082 0.5 -0.16419 -0.841117
441 1 0.0973921 0.281577 0.5 0.129646 -0.810477
442 1 0.132748 0.342253 0.5 0.137749 -0.704584
443 1 0.99507 0.389933 0.5 0.21518 -0.650802
444 1 0.080025 0.375852 0.5 0.507266 -0.487108
445 1 0.055049 0.443826 0.5 0.637493 -0.286292
446 1 0.123269 0.345447 0.5 0.0863097 -0.859229
447 1 0.00445209 0.397211 0.5 0.609996 -0.361846
448 1 0.0261367 0.366865 0.5 0.400842 -0.865733
449 1 0.166126 0.37439 0.5 0.0601336 -0.256811
450 1 0.0135364 0.444252 0.5 0.105103 -0.697688
451 1 0.0481891 0.483471 0.5 0.897983 -0.143195
452 1 0.205719 0.35901 0.5 0.0602218 -0.610398
453 1 0.095835 0.607855 0.5 0.339425 -0.71844
454 1 0.0626576 0.426609 0.5 0.423157 -0.806549
455 1 0.162082 0.542107 0.5 0.885053 -0.18869
456 1 0.0955115 0.262771 0.5 0.263671 -0.157249
457 1 0.127976 0.305315 0.5 0.487022 -0.562952
458 1 0.0959878 0.211695 0.5 0.433716 -0.792764
459 1 0.0963856 0.338067 0.5 0.692453 -0.335413
460 1 0.077434 0.490079 0.5 0.24058 -0.368622
461 1 0.972341 0.404656 0.5 0.173065 -0.954752
462 1 0.987481 0.383164 0.5 0.398267 -0.451911
463 1 0.27361 0.48326 0.5 0.250341 -0.929436
464 1 0.0968806 0.488046 0.5 0.0952649 -0.827308
465 1 0.122127 0.444983 0.5 0.34943 -0.75468
466 1 0.160441 0.253476 0.5 0.00182553 -0.392305
467 1 0.273923 0.0870426 0.5 0.123471 -0.465912
468 1 0.149967 0.302607 0.5 0.417622 -0.828432
469 1 0.00858436 0.387491 0.5 0.5243 -0.477387
470 1 0.0747699 0.443206 0.5 0.815961 -0.388874
471 1 0.0231905 0.376413 0.5 0.433527 -0.862499
472 1 0.134522 0.269422 0.5 0.887474 -0.212673
473 1 0.0139647 0.29795 0.5 0.300523 -0.488399
474 1 0.161448 0.385647 0.5 0.3982 -0.535676
475 1 0.126374 0.656805 0.5 0.741947 -0.392749
476 1 0.236546 0.219156 0.5 0.221808 -0.77051
477 1 0.0608689 0.380649 0.5 0.174712 -0.861836
478 1 0.109985 0.355426 0.5 0.720486 -0.572183
479 1 0.00482159 0.372428 0.5 -0.014172 -0.814524
480 1 0.0821675 0.349783 0.5 0.726807 -0.514079
481 1 0.995213 0.465391 0.5 0.561322 -0.389852
482 1 0.0727538 0.324311 0.5 0.319348 -0.923503
483 1 0.0325613 0.274137 0.5 0.504501 -0.673837
484 1 0.0668479 0.358242 0.5 0.489169 -0.606597
485 1 0.0736386 0.395891 0.5 0.612671 -0.559351
486 1 0.112129 0.427691 0.5 0.17473 -0.453935
487 1 0.965322 0.423207 0.5 0.778353 -0.481332
488 1 0.298203 0.341748 0.5 -0.675406 -0.0495381
489 1 0.034948 0.392643 0.5 0.641706 -0.695947
490 1 0.0407951 0.3299 0.5 0.672148 -0.553393
491 1 0.125647 0.287123 0.5 0.552482 -0.698004
492 1 0.0360988 0.464652 0.5 0.430424 -0.772921
493 1 0.0252657 0.467371 0.5 0.515286 -0.506446
494 1 0.0557122 0.245799 0.5 0.674713 -0.391736
495 1 0.170075 0.252603 0.5 0.565251 -0.630343
496 1 0.196902 0.199926 0.5 0.59781 -0.641926
497 1 0.119421 0.593125 0.5 0.529729 -0.46691
498 1 0.0440418 0.372766 0.5 0.757312 -0.548112
499 1 0.155435 0.209891 0.5 -0.285808 -0.917193
500 1 0.118945 0.279108 0.5 0.68788 -0.599675
501 1 0.993465 0.300083 0.5 0.78161 -0.500008
502 1 0.115856 0.363441 0.5 0.560914 -0.605303
503 1 0.130822 0.499072 0.5 0.538042 -0.741622
504 1 0.146305 0.312689 0.5 0.407182 -0.876763
505 1 0.21169 0.252783 0.5 -0.317269 0.315763
506 1 0.0895605 0.450043 0.5 0.637973 -0.652668
507 1 0.996397 0.436643 0.5 0.63472 -0.322779
508 1 0.0183768 0.387415 0.5 0.563555 -0.629182
509 1 0.0389929 0.455458 0.5 0.555616 -0.579783
510 1 0.150165 0.276294 0.5 0.500601 -0.668629
511 1 0.0563477 0.419357 0.5 0.415871 -0.870086
512 1 0.110261 0.40261 0.5 0.610097 -0.354652
513 1 0.177811 0.352437 0.5 0.491139 -0.679963
514 1 0.0124718 0.527513 0.5 0.809603 -0.439265
515 1 0.183116 0.432487 0.5 0.297529 -0.543211
516 1 0.0444342 0.446043 0.5 0.61816 -0.674577
517 1 0.0488187 0.501969 0.5 0.8079 -0.248245
518 1 0.101075 0.430295 0.5 0.642899 -0.305631
519 1 0.981807 0.447798 0.5 0.805104 -0.429791
520 1 0.0740442 0.562435 0.5 0.860888 -0.199278
521 1 0.0425217 0.521341 0.5 0.394147 -0.743649
522 1 0.244386 0.380224 0.5 -0.199014 -0.547303
523 1 0.034233 0.421717 0.5 0.230824 -0.800495
524 1 0.172145 0.272073 0.5 -0.168589 -0.845489
525 1 0.955419 0.442445 0.5 0.847462 -0.509431
526 1 0.00236815 0.427355 0.5 0.75173 -0.347006
527 1 0.112375 0.327539 0.5 0.562382 -0.434407
528 1 0.239385 0.209912 0.5 0.589189 -0.60054
529 1 0.0883816 0.359122 0.5 0.208989 -0.695257
530 1 0.30143 0.495391 0.5 0.355728 -0.823113
531 1 0.0991352 0.448834 0.5 0.825669 -0.449319
532 1 0.0857712 0.368224 0.5 0.339699 -0.450762
533 1 0.107664 0.279991 0.5 0.447803 -0.618639
534 1 0.160212 0.462291 0.5 0.181928 0.145671
535 1 0.0745059 0.241685 0.5 0.321083 -0.830114
536 1 0.0956825 0.36533 0.5 0.176472 -0.69542
537 1 0.109892 0.44745 0.5 0.785657 -0.486938
538 1 0.971448 0.448881 0.5 0.737444 -0.623242
539 1 0.122654 0.400375 0.5 -0.420282 -0.555862
540 1 0.17671 0.289801 0.5 0.847805 -0.374744
541 1 0.0818445 0.249101 0.5 0.33636 -0.783584
542 1 0.157089 0.419541 0.5 -0.168589 -0.677126
543 1 0.310068 0.46596 0.5 0.175201 -0.753869
544 1 0.206629 0.428749 0.5 0.442423 -0.0464167
545 1 0.0839769 0.396116 0.5 0.314841 -0.53402
546 1 0.0106292 0.453733 0.5 0.117497 -0.726026
547 1 0.149101 0.258202 0.5 0.357377 -0.491629
548 1 0.178762 0.19442 0.5 -0.0527232 -0.897886
549 1 0.183409 0.317097 0.5 0.70051 -0.60291
550 1 0.0822977 0.590209 0.5 0.882957 -0.312998
551 1 0.121166 0.355067 0.5 0.3607 -0.640459
552 1 0.338339 0.368058 0.5 0.306975 -0.739233
553 1 0.975626 0.365993 0.5 0.51725 -0.74275
554 1 0.112988 0.270774 0.5 0.746563 -0.399826
555 1 0.132515 0.29657 0.5 0.660519 -0.601892
556 1 0.0466792 0.337137 0.5 0.0808221 -0.90879
557 1 0.203435 0.63699 0.5 0.723998 -0.62946
558 1 0.0637697 0.36819 0.5 0.224038 -0.63791
559 1 0.184639 0.258669 0.5 0.0211402 -0.461437
560 1 0.0575247 0.360936 0.5 -0.034455 -0.933217
561 1 0.0873163 0.489198 0.5 0.507993 -0.509946
562 1 0.0536996 0.492436 0.5 0.896355 -0.222895
563 1 0.00715724 0.361236 0.5 0.216938 -0.859122
564 1 0.0850995 0.422025 0.5 0.209899 -0.426469
565 1 0.110418 0.568206 0.5 0.520883 -0.417457
566 1 0.160912 0.300783 0.5 0.66727 -0.609849
567 1 0.0979765 0.355597 0.5 0.425552 -0.487446
568 1 0.0668921 0.582669 0.5 0.259571 -0.457165
569 1 0.0462606 0.421207 0.5 0.419653 -0.588491
570 1 0.0802531 0.45225 0.5 0.689517 -0.617229
571 1 0.0329845 0.374945 0.5 0.529841 -0.81336
572 1 0.065006 0.244336 0.5 0.451436 -0.790308
573 1 0.0140406 0.341882 0.5 0.323573 -0.824038
574 1 0.126879 0.334424 0.5 0.545974 -0.6291
575 1 0.226909 0.276478 0.5 0.285879 -0.22188
576 1 0.0389258 0.354473 0.5 -0.0256132 -0.384441
577 1 0.0530023 0.402438 0.5 0.575139 -0.550661
578 1 0.0262272 0.440651 0.5 -0.0735206 -0.758894
579 1 0.150201 0.462363 0.5 0.0675106 0.0147876
580 1 0.239098 0.313843 0.5 -0.402098 -0.248883
581 1 0.048285 0.436897 0.5 0.58026 -0.700406
582 1 0.143297 0.321699 0.5 0.566879 -0.572313
583 1 0.157859 0.199221 0.5 0.20357 -0.956849
584 1 0.0744802 0.367455 0.5 0.845383 -0.352426
585 1 0.988246 0.455031 0.5 0.651083 -0.373674
586 1 0.106285 0.290836 0.5 0.46473 -0.547478
587 1 0.0905411 0.300878 0.5 0.222456 -0.722905
588 1 0.103622 0.347403 0.5 0.705873 -0.456736
589 1 0.156394 0.512174 0.5 0.472239 -0.286787
590 1 0.0957791 0.238785 0.5 0.0872705 -0.853153
591 1 0.317279 0.332935 0.5 0.362051 -0.1645
592 1 0.0423748 0.473179 0.5 0.848867 -0.426703
593 1 0.278625 0.350418 0.5 -0.485898 -0.728701
594 1 0.0879887 0.256756 0.5 0.307002 -0.588786
595 1 0.0554232 0.372595 0.5 0.276472 -0.51165
596 1 0.073526 0.425396 0.5 0.305469 -0.901562
597 1 0.1481 0.415593 0.5 -0.306136 0.00783609
598 1 0.211054 0.43769 0.5 0.48858 0.0310596
599 1 0.182176 0.298298 0.5 0.953556 -0.0391244
600 1 0.109591 0.549572 0.5 0.084149 -0.945662
601 1 0.139556 0.257993 0.5 0.29155 -0.381614
602 1 0.0377554 0.364508 0.5 0.235937 -0.676856
603 1 0.123919 0.26997 0.5 0.931125 -0.253327
604 1 0.0791161 0.331848 0.5 0.339984 -0.879726
605 1 0.216052 0.654664 0.5 0.232541 -0.852726
606 1 0.191892 0.279747 0.5 0.476911 -0.0995782
607 1 0.023185 0.276671 0.5 0.519953 -0.573543
608 1 0.155176 0.368089 0.5 -0.267923 -0.58261
609 1 0.116752 0.318158 0.5 0.134166 -0.742336
610 1 0.0343049 0.447256 0.5 0.422011 -0.635431
611 1 0.138251 0.332396 0.5 0.74331 -0.595349
612 1 0.0185424 0.359433 0.5 0.25697 -0.876887
613 1 0.0503892 0.354722 0.5 0.292802 -0.65525
614 1 0.126144 0.479643 0.5 0.686435 -0.349986
615 1 0.0259183 0.338752 0.5 0.682363 -0.34829
616 1 0.212915 0.233491 0.5 0.619895 -0.684142
617 1 0.096585 0.308612 0.5 0.127142 -0.294654
618 1 0.0787682 0.479958 0.5 -0.161884 -0.70029
619 1 0.0481867 0.311701 0.5 0.537065 -0.326051
620 1 0.081317 0.276495 0.5 0.554762 -0.742087
621 1 0.0764933 0.46079 0.5 0.754543 -0.450363
622 1 0.0918857 0.347645 0.5 0.648437 -0.632957
623 1 0.139474 0.4026 0.5 0.135745 -0.376905
624 1 0.17889 0.412712 0.5 -0.142742 -0.0523922
625 1 0.200925 0.440066 0.5 0.681968 -0.512913
626 1 0.180939 0.459628 0.5 0.16651 0.000610737
627 1 0.130461 0.406671 0.5 -0.195686 -0.279339
628 1 0.974105 0.321001 0.5 0.857437 -0.497966
629 1 0.141974 0.295274 0.5 0.379327 -0.743255
630 1 0.0644645 0.444347 0.5 0.819941 -0.181482