ITEM: TIMESTEP
0
ITEM: NUMBER OF ATOMS
10180
ITEM: BOX BOUNDS pp pp pp
-5.8359999999999999e+01 5.8359999999999999e+01
-5.8359999999999999e+01 5.8359999999999999e+01
-5.0000000000000000e-01 5.0000000000000000e-01
ITEM: ATOMS id type xs ys zs c_002[1] c_002[2]
1 1 0.132351 0.0730125 0.5 0.449163 -0.618941
2 1 0.111499 0.0479926 0.5 0.844987 -0.307324
3 1 0.104234 0.967115 0.5 0.642547 -0.720695
4 1 0.138543 0.0802618 0.5 0.744821 -0.418233
5 1 0.132265 0.0460884 0.5 0.140714 -0.687068
6 1 0.161222 0.0967252 0.5 0.735277 -0.587072
7 1 0.0550603 0.183529 0.5 0.192209 -0.056146
8 1 0.154121 0.0716532 0.5 0.784936 -0.453481
9 1 0.137214 0.0337708 0.5 0.60584 -0.565625
10 1 0.0307008 0.00358558 0.5 0.633609 -0.631111
11 1 0.0347564 0.947389 0.5 0.546621 -0.619449
12 1 0.105246 0.20253 0.5 0.159799 -0.343376
13 1 0.077994 0.990187 0.5 0.633396 -0.263097
14 1 0.101868 0.0223409 0.5 0.183057 -0.875428
15 1 0.0605239 0.0557805 0.5 0.621234 -0.00939508
16 1 0.111957 0.141734 0.5 -0.143168 -0.958044
17 1 0.0336778 0.993312 0.5 0.5996 -0.661935
18 1 0.0342294 0.918828 0.5 0.384596 -0.675242
19 1 0.0920868 0.0250975 0.5 0.305284 -0.702314
20 1 0.0245114 0.995307 0.5 0.304298 -0.899933
21 1 0.154608 0.0882313 0.5 0.802567 -0.416761
22 1 0.175925 0.0863972 0.5 0.447637 -0.826508
23 1 0.191254 0.0185209 0.5 0.709258 -0.627254
24 1 0.0821377 0.070911 0.5 0.960021 -0.0637216
25 1 0.142674 0.997933 0.5 0.537705 -0.778814
26 1 0.0926611 0.0975307 0.5 0.458281 -0.488865
27 1 0.0900558 0.0523307 0.5 0.0805957 -0.76754
28 1 0.141832 0.190998 0.5 0.827082 -0.137105
29 1 0.182867 0.208171 0.5 -0.252731 -0.00776625
30 1 0.0930683 0.99807 0.5 0.719571 -0.460396
31 1 0.0864703 0.110713 0.5 -0.745739 0.0859735
32 1 0.140734 0.098019 0.5 0.852798 -0.381734
33 1 0.102774 0.143759 0.5 -0.132228 -0.949997
34 1 0.106404 0.0849067 0.5 0.380311 -0.679355
35 1 0.179585 0.106755 0.5 0.714818 -0.236616
36 1 0.119057 0.10257 0.5 0.175217 -0.836822
37 1 0.103499 0.99587 0.5 0.535352 -0.484244
38 1 0.110456 0.0758653 0.5 0.540894 -0.480251
39 1 0.0531981 0.19339 0.5 0.350597 -0.0600205
40 1 0.131029 0.0565123 0.5 0.325924 -0.631989
41 1 0.148072 0.0636611 0.5 0.495117 -0.656647
42 1 0.119693 0.149337 0.5 0.0465639 -0.911886
43 1 0.125033 0.119734 0.5 -0.7113 -0.462728
44 1 0.00746953 0.960644 0.5 0.869479 -0.365386
45 1 0.115859 0.0839574 0.5 0.54177 -0.507615
46 1 0.0764237 0.115531 0.5 -0.570626 0.253436
47 1 0.0936926 0.146498 0.5 0.284213 -0.387188
48 1 0.165841 0.0884424 0.5 0.622057 -0.584024
49 1 0.0317111 0.976139 0.5 0.80799 -0.567302
50 1 0.0742987 0.0188889 0.5 0.82068 -0.403664
51 1 0.0699174 0.0558591 0.5 0.358161 -0.312846
52 1 0.120109 0.193906 0.5 0.90153 -0.288036
53 1 0.130886 0.981362 0.5 0.622309 -0.394264
54 1 0.0940481 0.0149177 0.5 0.260958 -0.710979
55 1 0.105451 0.121822 0.5 -0.348157 0.0790357
56 1 0.169454 0.198424 0.5 0.727833 0.00856376
57 1 0.101774 0.0686132 0.5 0.315449 -0.436043
58 1 0.0189924 0.960291 0.5 0.642609 -0.677988
59 1 0.0669827 0.990346 0.5 0.543917 -0.297728
60 1 0.0867548 0.168328 0.5 -0.257226 -0.654533
61 1 0.116285 0.158543 0.5 0.145893 -0.952611
62 1 0.119915 0.0291868 0.5 0.533598 -0.672282
63 1 0.121447 0.138564 0.5 -0.0721621 -0.792069
64 1 0.104292 0.134012 0.5 -0.130632 -0.858254
65 1 0.125072 0.0663784 0.5 0.619895 -0.570302
66 1 0.126112 0.109056 0.5 -0.424896 -0.864857
67 1 0.0774951 0.0367696 0.5 0.194741 -0.85699
68 1 0.100083 0.154064 0.5 0.251988 -0.922364
69 1 0.150092 0.0235562 0.5 0.743086 -0.253279
70 1 0.0486042 0.102899 0.5 0.470017 -0.466465
71 1 0.110641 0.194676 0.5 0.717518 -0.379039
72 1 0.0693115 0.124777 0.5 -0.0290255 0.280628
73 1 0.1497 0.0522927 0.5 0.406503 -0.475776
74 1 0.0772214 0.0623356 0.5 0.550803 -0.543197
75 1 0.113679 0.132515 0.5 -0.0242663 -0.813349
76 1 0.107839 0.0577866 0.5 0.844316 -0.302795
77 1 0.099609 0.986741 0.5 0.265716 -0.472023
78 1 0.0626963 0.0914238 0.5 0.601725 -0.755123
79 1 0.0648538 0.108618 0.5 0.325223 -0.610876
80 1 0.171342 0.125292 0.5 0.813179 -0.279181
81 1 0.106543 0.161095 0.5 0.13317 -0.964309
82 1 0.0357446 0.102891 0.5 0.655021 -0.223759
83 1 0.195288 0.227565 0.5 -0.183294 -0.0605457
84 1 0.126993 0.0362955 0.5 0.449275 -0.727094
85 1 0.017958 0.080444 0.5 0.88935 -0.38621
86 1 0.180091 0.0771917 0.5 0.365401 -0.728395
87 1 0.0805115 0.0531296 0.5 0.338373 -0.867035
88 1 0.0531039 0.973278 0.5 0.631526 -0.622599
89 1 0.134077 0.163834 0.5 0.696484 -0.585859
90 1 0.0170501 0.17907 0.5 0.347787 -0.818378
91 1 0.0884385 0.00714954 0.5 0.477412 -0.720718
92 1 0.0713863 0.143628 0.5 0.130646 0.427238
93 1 0.172821 0.99351 0.5 0.522993 -0.732193
94 1 0.0217396 0.024135 0.5 0.745025 -0.36894
95 1 0.0266137 0.203168 0.5 0.470852 -0.22198
96 1 0.0546775 0.110328 0.5 0.734858 -0.574495
97 1 0.0417767 0.164448 0.5 -0.259491 -0.609268
98 1 0.0027416 0.981131 0.5 0.312715 -0.487777
99 1 0.183165 0.0665237 0.5 0.360927 -0.694626
100 1 0.133714 0.116026 0.5 -0.502713 -0.155382
101 1 0.0604057 0.118221 0.5 0.219626 -0.451331
102 1 0.987751 0.965665 0.5 0.350255 -0.762178
103 1 0.140695 0.0244553 0.5 0.578338 -0.698494
104 1 0.0791702 0.20084 0.5 0.781743 -0.474602
105 1 0.0501538 0.0752211 0.5 0.719658 -0.455265
106 1 0.0948104 0.13655 0.5 -0.309254 -0.553378
107 1 0.986404 0.0836819 0.5 0.823193 -0.437472
108 1 0.104365 0.112297 0.5 -0.122554 -0.122976
109 1 0.0867632 0.96155 0.5 0.447258 -0.610858
110 1 0.0460803 0.128219 0.5 0.518897 -0.489705
111 1 0.108043 0.958193 0.5 0.650843 -0.577443
112 1 0.079601 0.137449 0.5 -0.281747 0.379093
113 1 0.16712 0.104181 0.5 0.283518 -0.393577
114 1 0.126319 0.18447 0.5 0.681961 -0.528056
115 1 0.102599 0.0960315 0.5 0.50287 -0.67829
116 1 0.0767419 0.0801222 0.5 0.670284 -0.484463
117 1 0.0615206 0.131008 0.5 -0.546202 0.555748
118 1 0.128019 0.0093126 0.5 0.669338 -0.561484
119 1 0.118042 0.00957859 0.5 0.223598 -0.701556
120 1 0.134282 0.0897977 0.5 0.836052 -0.418982
121 1 0.994326 0.0647017 0.5 0.372631 -0.880147
122 1 0.143026 0.210227 0.5 0.909112 -0.23425
123 1 0.0989097 0.0788988 0.5 0.266174 -0.758234
124 1 0.144357 0.0156697 0.5 0.637048 -0.67119
125 1 0.0401519 0.00133433 0.5 0.646924 -0.455346
126 1 0.0403478 0.926292 0.5 0.186404 -0.177785
127 1 0.1138 0.0202883 0.5 0.359836 -0.741663
128 1 0.0757673 0.943423 0.5 0.519412 -0.677908
129 1 0.135529 0.106084 0.5 0.209523 -0.276387
130 1 0.0811073 0.160283 0.5 0.163742 -0.638484
131 1 0.126903 0.155809 0.5 0.261988 -0.900175
132 1 0.081396 0.981184 0.5 0.572944 -0.631892
133 1 0.0588297 0.981998 0.5 0.715055 -0.552463
134 1 0.0871693 0.0344884 0.5 0.623397 -0.70526
135 1 0.12388 0.0177507 0.5 0.650245 -0.639002
136 1 0.0490433 0.028291 0.5 0.434648 -0.487541
137 1 0.0103287 0.932961 0.5 0.53578 -0.617739
138 1 0.136331 0.182504 0.5 0.533731 -0.750246
139 1 0.0596333 0.028251 0.5 0.753331 -0.125271
140 1 0.0949591 0.207159 0.5 -0.098465 -0.910374
141 1 0.151594 0.171394 0.5 0.505958 -0.121813
142 1 0.124352 0.974526 0.5 0.198522 -0.554846
143 1 0.076178 0.151774 0.5 0.336499 -0.0458407
144 1 0.0971982 0.0332896 0.5 0.309929 -0.563345
145 1 0.0916298 0.978726 0.5 0.0803594 -0.965357
146 1 0.0664498 0.0406039 0.5 -0.166911 -0.325901
147 1 0.103694 0.170071 0.5 0.0223488 -0.0471567
148 1 0.151275 0.0975829 0.5 0.686655 -0.597093
149 1 0.0600538 0.22246 0.5 0.582877 -0.519063
150 1 0.130698 0.0264671 0.5 0.385216 -0.899751
151 1 0.155821 0.987134 0.5 0.389704 -0.785151
152 1 0.109459 0.103464 0.5 0.543461 -0.697708
153 1 0.13973 0.172275 0.5 0.572629 -0.501313
154 1 0.140238 0.980616 0.5 0.715957 -0.638641
155 1 0.154563 0.0440437 0.5 0.556629 -0.370775
156 1 0.148943 0.0803143 0.5 0.949689 -0.185216
157 1 0.0483947 0.982121 0.5 0.523831 -0.617389
158 1 0.0568558 0.151575 0.5 0.502865 -0.071836
159 1 0.0320384 0.0935979 0.5 0.370617 -0.0296424
160 1 0.00776555 0.990629 0.5 0.625716 -0.573125
161 1 0.0487225 0.0568737 0.5 0.62223 -0.607876
162 1 0.0414183 0.975303 0.5 0.596007 -0.645358
163 1 0.120023 0.00043152 0.5 0.323866 -0.850198
164 1 0.109765 0.26948 0.5 0.505014 -0.839828
165 1 0.113368 0.993163 0.5 0.469804 -0.462768
166 1 0.137623 0.0648458 0.5 0.651551 -0.599818
167 1 0.135506 0.126111 0.5 -0.389797 -0.171308
168 1 0.0383426 0.984422 0.5 0.609016 -0.69482
169 1 0.179071 0.13333 0.5 0.640302 -0.542313
170 1 0.0441987 0.892538 0.5 -0.117651 -0.761306
171 1 0.137399 0.00871547 0.5 0.620661 -0.659977
172 1 0.0714511 0.162302 0.5 0.650064 -0.602947
173 1 0.156444 0.0348486 0.5 0.428098 -0.510762
174 1 0.106419 0.0388151 0.5 0.392908 -0.431155
175 1 0.044656 0.153841 0.5 0.15503 -0.722889
176 1 0.0369478 0.174617 0.5 -0.298854 -0.437973
177 1 0.132412 0.210416 0.5 0.702648 -0.624828
178 1 0.0964366 0.163477 0.5 -0.162348 -0.773728
179 1 0.115107 0.122952 0.5 -0.284838 -0.541526
180 1 0.143859 0.072177 0.5 0.861688 -0.308306
181 1 0.121342 0.0760157 0.5 0.478126 -0.441853
182 1 0.034282 0.0668614 0.5 0.260661 -0.546331
183 1 0.99091 0.953939 0.5 0.406508 -0.717181
184 1 0.175483 0.0102882 0.5 0.457508 -0.651374
185 1 0.073733 0.046643 0.5 -0.0287514 -0.648425
186 1 0.0611416 0.164178 0.5 -0.184552 -0.383758
187 1 0.115919 0.965961 0.5 0.454215 -0.652244
188 1 0.162902 0.993768 0.5 0.47634 -0.672944
189 1 0.184855 0.095868 0.5 0.353474 -0.0937278
190 1 0.0646331 0.256834 0.5 0.756007 -0.317956
191 1 0.0707112 0.133956 0.5 -0.502136 0.796611
192 1 0.103692 0.187951 0.5 0.533707 -0.414117
193 1 0.0814741 0.0269697 0.5 0.487114 -0.840837
194 1 0.164056 0.0697946 0.5 0.279379 -0.638472
195 1 0.0305532 0.139243 0.5 0.463184 -0.627137
196 1 0.131799 0.192954 0.5 0.828731 -0.343839
197 1 0.0320273 0.0214677 0.5 0.630532 -0.624763
198 1 0.155134 0.162108 0.5 0.471021 -0.271519
199 1 0.0541656 0.0468841 0.5 0.243961 -0.565557
200 1 0.165353 0.114242 0.5 0.209439 -0.404515
201 1 0.0937231 0.968763 0.5 0.187499 -0.822489
202 1 0.115972 0.0381502 0.5 0.828022 -0.507949
203 1 0.150023 0.126245 0.5 0.621139 -0.0970541
204 1 0.0786774 0.0105482 0.5 0.574438 -0.416734
205 1 0.0365107 0.0573324 0.5 0.236391 -0.847412
206 1 0.182019 0.124171 0.5 0.718635 -0.597323
207 1 0.0784906 0.126282 0.5 -0.426218 0.682471
208 1 0.0848091 0.0181137 0.5 0.30811 -0.818598
209 1 0.0980748 0.0580862 0.5 0.234568 -0.361397
210 1 0.15792 0.153007 0.5 0.560582 0.305077
211 1 0.05477 0.991357 0.5 0.675114 -0.675911
212 1 0.0877202 0.226513 0.5 0.478008 -0.680098
213 1 0.0197641 0.0969453 0.5 0.552337 -0.761534
214 1 0.0363268 0.084673 0.5 0.316814 -0.357189
215 1 0.163673 0.207182 0.5 0.73158 -0.0910372
216 1 0.0566532 0.0376109 0.5 0.0252346 -0.430677
217 1 0.0455805 0.0661938 0.5 0.609105 -0.38315
218 1 0.00252699 0.0900258 0.5 0.688336 -0.564314
219 1 0.0517638 0.169608 0.5 -0.505794 0.139116
220 1 0.0219871 0.977168 0.5 0.444537 -0.697767
221 1 0.123556 0.0906023 0.5 0.435042 -0.455233
222 1 0.125766 0.129977 0.5 -0.277344 -0.480375
223 1 0.103646 0.234219 0.5 0.468505 -0.777154
224 1 0.0438093 0.193722 0.5 0.680291 0.077049
225 1 0.152485 0.996235 0.5 0.394645 -0.907879
226 1 0.147967 0.152 0.5 0.563982 -0.375768
227 1 0.0575645 0.00954816 0.5 0.660719 -0.64403
228 1 0.119351 0.983145 0.5 0.74877 -0.3278
229 1 0.157566 0.0626852 0.5 0.2829 -0.811742
230 1 0.0923995 0.0709663 0.5 0.716646 -0.278876
231 1 0.140738 0.0553351 0.5 0.106258 -0.860027
232 1 0.159909 0.0524737 0.5 0.436058 -0.651527
233 1 0.0503228 0.119415 0.5 0.674028 -0.596477
234 1 0.020713 0.140381 0.5 0.612466 -0.654613
235 1 0.0268323 0.0324884 0.5 0.943937 -0.152876
236 1 0.0879931 0.0617645 0.5 0.407246 -0.388272
237 1 0.16773 0.154945 0.5 0.110112 -0.0742395
238 1 0.0385332 0.146438 0.5 0.450454 -0.751927
239 1 0.0830564 0.0987032 0.5 0.166722 -0.0776284
240 1 0.176517 0.0572384 0.5 0.590198 -0.760484
241 1 0.0362694 0.184588 0.5 -0.391645 -0.575992
242 1 0.0636668 0.0186228 0.5 0.918356 -0.184156
243 1 0.133046 0.136229 0.5 -0.237964 -0.891101
244 1 0.0766435 0.105709 0.5 -0.451633 0.0187615
245 1 0.159353 0.0802811 0.5 0.86394 -0.346113
246 1 0.146864 0.20095 0.5 0.869345 -0.215957
247 1 0.997865 0.0100286 0.5 0.671679 -0.315189
248 1 0.0871429 0.130595 0.5 -0.629637 -0.20188
249 1 0.0238441 0.15827 0.5 0.505021 -0.464956
250 1 0.0664997 0.0809789 0.5 0.488656 -0.673209
251 1 0.110616 0.974201 0.5 0.280005 -0.486705
252 1 0.084264 0.14655 0.5 0.335825 0.0989347
253 1 0.045949 0.0394769 0.5 0.246651 -0.592464
254 1 0.109944 0.151072 0.5 0.152562 -0.935427
255 1 0.109821 0.00294761 0.5 0.2419 -0.858162
256 1 0.0834741 0.0441885 0.5 0.444566 -0.873871
257 1 0.0836975 0.0880579 0.5 0.254488 -0.666455
258 1 0.123793 0.16568 0.5 0.400889 -0.766734
259 1 0.0720404 0.0719644 0.5 0.769142 -0.36285
260 1 0.012111 0.0243173 0.5 0.70302 -0.418459
261 1 0.0359123 0.967227 0.5 0.883967 -0.353883
262 1 0.122564 0.0485896 0.5 0.434831 -0.618372
263 1 0.119265 0.0585187 0.5 0.70714 -0.523273
264 1 0.0681488 0.00947976 0.5 0.771494 -0.291459
265 1 0.0712171 0.998883 0.5 0.745022 -0.0329733
266 1 0.0853334 0.179987 0.5 -0.15795 -0.887132
267 1 0.147973 0.108699 0.5 0.569407 -0.40619
268 1 0.0615908 0.141519 0.5 -0.228402 0.00104731
269 1 0.116746 0.112747 0.5 -0.0481212 -0.662606
270 1 0.144731 0.0891453 0.5 0.84242 -0.521307
271 1 0.22845 0.194137 0.5 -0.0922799 -0.551494
272 1 0.0958806 0.116554 0.5 -0.88132 -7.88408e-05
273 1 0.123669 0.991406 0.5 0.732416 -0.323961
274 1 0.146656 0.0340829 0.5 0.785954 -0.278843
275 1 0.0611214 0.999716 0.5 0.651321 -0.56463
276 1 0.11999 0.176264 0.5 0.688606 -0.640208
277 1 0.11295 0.260291 0.5 0.398666 -0.854493
278 1 0.0974571 0.127056 0.5 -0.468173 -0.351963
279 1 0.0954214 0.0880816 0.5 0.355873 -0.78595
280 1 0.133631 0.0173536 0.5 0.587635 -0.686303
281 1 0.115165 0.0672189 0.5 0.849471 -0.489229
282 1 0.0338471 0.193806 0.5 0.3886 -0.350465
283 1 0.0954541 0.106667 0.5 -0.236053 -0.0248167
284 1 0.149281 0.00618994 0.5 0.497888 -0.717253
285 1 0.0826867 0.999734 0.5 0.752426 -0.335809
286 1 0.145619 0.163972 0.5 0.518526 -0.463128
287 1 0.0871497 0.120363 0.5 -0.894544 0.0799497
288 1 0.0742086 0.0900729 0.5 0.391773 -0.796066
289 1 0.146846 0.181112 0.5 0.643133 -0.121159
290 1 0.130646 0.999521 0.5 0.633595 -0.603823
291 1 0.094955 0.177471 0.5 0.108051 -0.352901
292 1 0.135815 0.990867 0.5 0.677309 -0.417224
293 1 0.165647 0.0129304 0.5 0.566275 -0.613481
294 1 0.101637 0.0484218 0.5 0.378046 -0.577393
295 1 0.174758 0.0404557 0.5 0.489533 -0.748312
296 1 0.0832396 0.192141 0.5 0.320277 -0.344909
297 1 0.014338 0.970439 0.5 0.320915 -0.50919
298 1 0.155492 0.117161 0.5 0.441524 -0.584858
299 1 0.0514243 0.00229927 0.5 0.497549 -0.596372
300 1 0.0386428 0.0332898 0.5 0.22819 -0.139364
301 1 0.062966 0.194598 0.5 0.613528 -0.330224
302 1 0.163015 0.936839 0.5 0.573322 -0.563308
303 1 0.0433476 0.0197358 0.5 0.689487 -0.597701
304 1 0.054021 0.0186866 0.5 0.845263 -0.40692
305 1 0.0896849 0.156081 0.5 0.220065 -0.652241
306 1 0.0567442 0.0837605 0.5 0.493557 -0.699619
307 1 0.110001 0.0292968 0.5 0.418251 -0.641258
308 1 0.066508 0.184436 0.5 0.181201 -0.621558
309 1 0.112384 0.0943881 0.5 0.391945 -0.785166
310 1 0.180198 0.0481477 0.5 0.581206 -0.762889
311 1 0.0452558 0.992886 0.5 0.697801 -0.51074
312 1 0.151979 0.192224 0.5 0.689459 -0.146932
313 1 0.128602 0.082228 0.5 0.509062 -0.636701
314 1 0.0695304 0.0299389 0.5 0.340015 -0.401253
315 1 0.105063 0.0136146 0.5 0.329342 -0.716004
316 1 0.0684062 0.171579 0.5 0.117315 -0.584575
317 1 0.200918 0.1937 0.5 -0.400157 -0.0118884
318 1 0.0421333 0.492495 0.5 0.170399 -0.89362
319 1 0.0576558 0.396493 0.5 -0.0960441 0.396371
320 1 0.981966 0.406865 0.5 0.00571147 -0.347372
321 1 0.0905898 0.454654 0.5 0.221677 -0.465846
322 1 0.0862285 0.298696 0.5 0.726896 -0.53524
323 1 0.0149219 0.34225 0.5 0.465254 -0.843341
324 1 0.107711 0.223102 0.5 0.589075 -0.64243
325 1 0.0609316 0.311128 0.5 0.86464 -0.272548
326 1 0.0520067 0.424149 0.5 0.476642 -0.844485
327 1 0.040573 0.286425 0.5 0.850712 -0.227277
328 1 0.0561583 0.387105 0.5 -0.357257 0.111819
329 1 0.0752387 0.210586 0.5 0.737481 -0.553839
330 1 0.0934489 0.306659 0.5 0.654198 -0.599021
331 1 0.032281 0.37651 0.5 -0.0836881 -0.443041
332 1 0.078277 0.42962 0.5 0.207402 -0.935197
333 1 0.0580962 0.353635 0.5 0.952253 0.0455306
334 1 0.0914045 0.290165 0.5 0.6937 -0.56962
335 1 0.0491225 0.434802 0.5 0.189084 -0.972074
336 1 0.0308196 0.214174 0.5 0.57595 -0.305693
337 1 0.0176674 0.333032 0.5 0.308333 -0.866583
338 1 0.125611 0.202552 0.5 0.731429 -0.493361
339 1 0.0870183 0.317727 0.5 0.935996 0.0960444
340 1 0.0439524 0.257391 0.5 0.372056 -0.417229
341 1 0.149082 0.321519 0.5 0.329517 -0.848703
342 1 0.100363 0.336333 0.5 -0.237802 -0.263864
343 1 0.0897941 0.245858 0.5 0.878868 -0.347989
344 1 0.120841 0.315252 0.5 0.0510903 -0.279306
345 1 0.173917 0.306099 0.5 0.735465 -0.451541
346 1 0.105988 0.391434 0.5 0.413051 -0.231907
347 1 0.00307657 0.399965 0.5 0.217289 -0.843572
348 1 0.017224 0.414128 0.5 -0.2552 -0.825971
349 1 0.066762 0.336378 0.5 0.885403 -0.375854
350 1 0.137166 0.360104 0.5 -0.0650614 -0.747595
351 1 0.024994 0.486579 0.5 0.24808 -0.513307
352 1 0.0598203 0.175111 0.5 -0.0530312 -0.567951
353 1 0.0178816 0.241982 0.5 -0.144951 -0.455848
354 1 0.000108288 0.46458 0.5 -0.189631 -0.750811
355 1 0.0549099 0.303032 0.5 0.568459 -0.499317
356 1 0.12236 0.211673 0.5 0.70693 -0.655549
357 1 0.024548 0.340766 0.5 0.266376 -0.92174
358 1 0.0933553 0.473115 0.5 0.160691 -0.451158
359 1 0.177724 0.241062 0.5 0.856575 -0.283304
360 1 0.046853 0.353804 0.5 0.553416 -0.360303
361 1 0.152551 0.283105 0.5 0.730395 -0.39786
362 1 0.0805957 0.291078 0.5 0.797906 -0.357436
363 1 0.125948 0.248687 0.5 0.465514 -0.761182
364 1 0.0721356 0.362357 0.5 -0.177011 0.0630046
365 1 0.115693 0.250375 0.5 0.364977 -0.883097
366 1 0.00445217 0.372475 0.5 0.487682 -0.757925
367 1 0.111965 0.286201 0.5 0.56673 -0.802635
368 1 0.0759718 0.257163 0.5 0.583599 -0.320185
369 1 0.0570435 0.293975 0.5 0.431158 -0.739014
370 1 0.169524 0.289926 0.5 0.435474 -0.701336
371 1 0.98407 0.375534 0.5 0.830206 -0.292577
372 1 0.117775 0.366655 0.5 -0.510826 -0.133701
373 1 0.110233 0.322731 0.5 -0.897142 0.241842
374 1 0.974574 0.230715 0.5 0.552917 -0.62967
375 1 0.157527 0.273602 0.5 0.406376 -0.467429
376 1 0.0416096 0.426161 0.5 0.243137 -0.79181
377 1 0.0277764 0.312818 0.5 0.680408 -0.295579
378 1 0.129308 0.175414 0.5 0.45539 -0.685134
379 1 0.0884117 0.385881 0.5 0.0747521 -0.00289322
380 1 0.0632068 0.45029 0.5 0.613807 -0.763902
381 1 0.998797 0.500595 0.5 0.253359 -0.904127
382 1 0.0851831 0.210052 0.5 0.469777 -0.666264
383 1 0.0275815 0.329966 0.5 0.23476 -0.487866
384 1 0.154045 0.366116 0.5 0.386943 -0.84928
385 1 0.11393 0.167724 0.5 0.336143 -0.722994
386 1 0.0472126 0.474105 0.5 -0.0668009 -0.662581
387 1 0.134581 0.478032 0.5 0.879394 -0.110899
388 1 0.142975 0.313102 0.5 0.474507 -0.716165
389 1 0.00817023 0.361501 0.5 0.370079 -0.72885
390 1 0.0457996 0.416762 0.5 0.671132 -0.680568
391 1 0.0447423 0.230702 0.5 0.798 -0.404453
392 1 0.0915346 0.352644 0.5 0.0567761 -0.599055
393 1 0.0852262 0.436939 0.5 -0.00844025 -0.57547
394 1 0.0180831 0.49691 0.5 0.287555 -0.354035
395 1 0.988227 0.291609 0.5 0.414005 -0.527854
396 1 0.015699 0.477708 0.5 -0.0669468 -0.843915
397 1 0.0372031 0.250252 0.5 0.542793 -0.536767
398 1 0.0856351 0.282345 0.5 0.571599 -0.658714
399 1 0.0147744 0.297966 0.5 0.839072 -0.359657
400 1 0.149109 0.422299 0.5 0.029821 -0.28471
401 1 0.0518672 0.159989 0.5 -0.473171 -0.0443052
402 1 0.168451 0.216965 0.5 0.619699 -0.322853
403 1 0.0222658 0.431515 0.5 -0.0271154 -0.861689
404 1 0.0787308 0.273781 0.5 0.448591 -0.827076
405 1 0.00956488 0.289815 0.5 0.72893 -0.473059
406 1 0.0126895 0.435542 0.5 0.218587 -0.542035
407 1 0.024354 0.259783 0.5 0.628864 -0.36952
408 1 0.0924378 0.343171 0.5 0.121917 -0.349401
409 1 0.069458 0.265113 0.5 0.426387 -0.316326
410 1 0.947007 0.328023 0.5 0.391318 -0.564296
411 1 0.0344055 0.279215 0.5 0.813228 -0.0260289
412 1 0.0548691 0.230654 0.5 0.85905 -0.351852
413 1 0.0299223 0.439433 0.5 0.162482 -0.932913
414 1 0.0533664 0.212806 0.5 0.845475 -0.235993
415 1 0.0439933 0.320732 0.5 0.419893 -0.728619
416 1 0.120227 0.239206 0.5 0.424217 -0.77012
417 1 0.0457402 0.445561 0.5 0.206251 -0.859904
418 1 0.135313 0.229222 0.5 0.74648 -0.462567
419 1 0.980005 0.312513 0.5 0.629071 -0.745327
420 1 0.0598751 0.266629 0.5 0.694374 -0.656543
421 1 0.0801446 0.246444 0.5 0.775824 -0.567103
422 1 0.113893 0.303219 0.5 0.6748 -0.211454
423 1 0.0904397 0.401019 0.5 0.653549 0.26281
424 1 0.188716 0.295249 0.5 0.522756 -0.536673
425 1 0.0614986 0.422712 0.5 0.692525 -0.588578
426 1 0.122956 0.257862 0.5 0.40406 -0.86703
427 1 0.0757798 0.439275 0.5 0.0282468 -0.981581
428 1 0.988642 0.33953 0.5 0.120137 -0.890467
429 1 0.984713 0.391395 0.5 0.562026 0.477475
430 1 0.141965 0.395577 0.5 0.532268 -0.647102
431 1 0.129754 0.424697 0.5 0.614955 -0.702916
432 1 0.995172 0.319563 0.5 0.493844 -0.459629
433 1 0.028569 0.287222 0.5 0.631695 -0.265531
434 1 0.0913372 0.511351 0.5 0.188489 -0.788788
435 1 0.188501 0.423618 0.5 0.71853 -0.524651
436 1 0.0847354 0.236329 0.5 0.466562 -0.516367
437 1 0.080912 0.418871 0.5 0.384078 -0.657016
438 1 0.132175 0.442177 0.5 0.578204 -0.479306
439 1 0.0523859 0.362213 0.5 0.164866 0.43848
440 1 0.0463455 0.389842 0.5 -0.064669 -0.787346
441 1 0.0672995 0.276027 0.5 0.441653 -0.62241
442 1 0.099823 0.317089 0.5 -0.122841 0.0283688
443 1 0.949181 0.374661 0.5 0.7013 -0.0989514
444 1 0.105769 0.278575 0.5 0.59796 -0.732002
445 1 0.0296279 0.46708 0.5 0.505086 -0.715062
446 1 0.0825688 0.308571 0.5 0.707115 -0.397202
447 1 0.0725532 0.309354 0.5 0.451907 -0.342509
448 1 0.0257005 0.296248 0.5 0.638915 -0.665321
449 1 0.183241 0.387887 0.5 0.516691 -0.633887
450 1 0.0163156 0.424165 0.5 -0.32485 -0.729895
451 1 0.0425299 0.454558 0.5 0.070819 -0.908402
452 1 0.125342 0.334867 0.5 -0.00719452 -0.700581
453 1 0.0265117 0.503418 0.5 0.0178617 -0.323451
454 1 0.0418847 0.30357 0.5 0.805949 -0.329915
455 1 0.123344 0.478291 0.5 0.357798 -0.514052
456 1 0.0979494 0.225606 0.5 0.66522 -0.615621
457 1 0.102575 0.214549 0.5 0.357449 -0.765287
458 1 0.0682926 0.203161 0.5 0.718151 -0.42767
459 1 0.0396496 0.268885 0.5 0.88788 -0.352007
460 1 0.0392978 0.436939 0.5 0.16017 -0.924834
461 1 0.991045 0.328075 0.5 0.443333 -0.669163
462 1 0.985652 0.320227 0.5 0.604297 -0.649288
463 1 0.090377 0.418043 0.5 0.590301 -0.175476
464 1 0.0663149 0.441404 0.5 0.270004 -0.877732
465 1 0.0711998 0.399788 0.5 0.43268 0.311195
466 1 0.0977127 0.196312 0.5 0.183174 -0.369521
467 1 0.197955 0.135447 0.5 -0.194923 0.0559717
468 1 0.148347 0.219187 0.5 0.857474 -0.355822
469 1 0.991489 0.357489 0.5 0.276217 -0.780648
470 1 0.0736857 0.449322 0.5 0.176044 -0.886568
471 1 0.0657649 0.31936 0.5 0.941426 0.0270886
472 1 0.0812332 0.218655 0.5 0.596943 -0.746493
473 1 0.0506951 0.286838 0.5 0.731696 -0.475865
474 1 0.062459 0.404719 0.5 0.414851 0.196084
475 1 0.0329113 0.511771 0.5 0.337616 -0.345821
476 1 0.136264 0.24565 0.5 0.590975 -0.438012
477 1 0.0412568 0.345519 0.5 0.683689 -0.429567
478 1 0.0752314 0.408597 0.5 0.433437 0.3786
479 1 0.999256 0.306747 0.5 0.424151 -0.522958
480 1 0.0762834 0.318423 0.5 0.898734 0.0645915
481 1 0.0126237 0.397145 0.5 0.205148 -0.89589
482 1 0.0200808 0.26861 0.5 0.611036 -0.275834
483 1 0.0295153 0.269582 0.5 0.940031 0.0889604
484 1 0.0603206 0.327539 0.5 0.926821 -0.0993177
485 1 0.0409636 0.330072 0.5 0.490571 -0.532798
486 1 0.062761 0.34509 0.5 0.87835 -0.399037
487 1 0.96189 0.391244 0.5 0.514136 -0.598948
488 1 0.19705 0.34327 0.5 0.198876 0.14048
489 1 0.0655022 0.302593 0.5 0.235136 -0.723528
490 1 0.0354908 0.33802 0.5 0.55436 -0.544388
491 1 0.0539611 0.25855 0.5 0.751799 -0.420358
492 1 0.0317918 0.457346 0.5 0.33096 -0.788648
493 1 0.0325426 0.429781 0.5 0.0959021 -0.86661
494 1 0.00267576 0.263732 0.5 0.0727109 -0.929978
495 1 0.158821 0.199017 0.5 0.744151 -0.424127
496 1 0.0932154 0.187072 0.5 0.0732676 -0.362166
497 1 0.0485394 0.500688 0.5 0.65014 -0.572516
498 1 0.0616151 0.285526 0.5 0.76691 -0.502391
499 1 0.0632046 0.211712 0.5 0.698936 -0.499624
500 1 0.0987563 0.271116 0.5 0.597645 -0.746592
501 1 0.984109 0.229514 0.5 0.818017 -0.288055
502 1 0.0548835 0.372089 0.5 0.195864 0.362078
503 1 0.110445 0.446631 0.5 0.700311 -0.553126
504 1 0.0806718 0.327106 0.5 0.828168 -0.24715
505 1 0.173221 0.207594 0.5 0.531396 0.125917
506 1 0.0225799 0.395031 0.5 0.20234 -0.627604
507 1 0.025123 0.41984 0.5 -0.024256 -0.710649
508 1 0.00807085 0.333786 0.5 0.10075 -0.806882
509 1 0.0511322 0.405754 0.5 0.510836 -0.306522
510 1 0.14984 0.263344 0.5 0.474022 -0.794142
511 1 0.0668397 0.41378 0.5 0.486877 -0.188246
512 1 0.110892 0.332336 0.5 -0.407732 -0.257697
513 1 0.118971 0.294231 0.5 0.599906 -0.371847
514 1 0.0409336 0.466128 0.5 0.124194 -0.505811
515 1 0.111869 0.462275 0.5 0.755094 -0.0840823
516 1 0.0245824 0.278226 0.5 0.867484 0.159908
517 1 0.00645932 0.416179 0.5 -0.1885 -0.622887
518 1 0.0884297 0.427128 0.5 0.250874 -0.455094
519 1 0.982538 0.432263 0.5 0.298164 -0.748788
520 1 0.0552121 0.480095 0.5 -0.052178 -0.69004
521 1 0.0556542 0.469688 0.5 0.0548313 -0.526894
522 1 0.204911 0.302946 0.5 0.613226 -0.702125
523 1 0.0198098 0.377883 0.5 0.381807 -0.849919
524 1 0.122953 0.305483 0.5 0.238301 -0.179508
525 1 0.961916 0.361343 0.5 0.226306 -0.699601
526 1 0.994854 0.346806 0.5 0.291174 -0.922076
527 1 0.0922816 0.262902 0.5 0.488884 -0.860082
528 1 0.152573 0.210724 0.5 0.723185 -0.316141
529 1 0.103862 0.30501 0.5 0.514687 -0.812509
530 1 0.180829 0.519845 0.5 0.698823 -0.646056
531 1 0.0445478 0.483108 0.5 -0.0383205 -0.98798
532 1 0.0887926 0.271884 0.5 0.494706 -0.801828
533 1 0.109423 0.242376 0.5 0.346392 -0.854281
534 1 0.121287 0.444655 0.5 0.456058 -0.727416
535 1 0.0851057 0.25437 0.5 0.518792 -0.601358
536 1 0.0528042 0.345336 0.5 0.857113 -0.246961
537 1 0.0726958 0.381124 0.5 0.340467 0.380806
538 1 0.0102998 0.380174 0.5 0.390698 -0.879046
539 1 0.0101278 0.40709 0.5 0.142712 -0.931602
540 1 0.125838 0.275461 0.5 0.72817 -0.574
541 1 0.0419092 0.239813 0.5 0.737268 -0.512872
542 1 0.121917 0.399233 0.5 0.473139 -0.500795
543 1 0.167103 0.481514 0.5 0.126713 -0.0185836
544 1 0.0832326 0.446769 0.5 -0.150417 -0.707335
545 1 0.0349431 0.391672 0.5 0.189539 -0.816444
546 1 0.978963 0.383925 0.5 0.628067 0.174061
547 1 0.123232 0.229345 0.5 0.60846 -0.335837
548 1 0.0780112 0.172458 0.5 0.135205 -0.539048
549 1 0.138049 0.322777 0.5 0.486655 -0.649317
550 1 0.038676 0.503264 0.5 0.68618 -0.354239
551 1 0.0692629 0.353372 0.5 0.635854 0.142732
552 1 0.211738 0.28406 0.5 0.509444 -0.69633
553 1 0.00102554 0.35464 0.5 0.148727 -0.892797
554 1 0.0941207 0.236519 0.5 0.692671 -0.534121
555 1 0.107799 0.295551 0.5 0.605492 -0.762562
556 1 0.0145048 0.279549 0.5 0.772325 -0.260036
557 1 0.120693 0.573772 0.5 0.230671 -0.866716
558 1 0.0746104 0.283407 0.5 0.623582 -0.549051
559 1 0.100154 0.244575 0.5 0.597845 -0.724494
560 1 0.0331846 0.364601 0.5 0.0641694 0.0350486
561 1 0.0807741 0.456073 0.5 0.118375 -0.951167
562 1 0.0291303 0.410324 0.5 0.136021 -0.7861
563 1 0.0472846 0.295676 0.5 0.598176 -0.387962
564 1 0.038965 0.408841 0.5 0.515346 -0.81617
565 1 0.151121 0.541634 0.5 0.30951 -0.854679
566 1 0.0968248 0.297695 0.5 0.591125 -0.739377
567 1 0.0457913 0.278381 0.5 0.770274 -0.375534
568 1 0.0671562 0.469435 0.5 0.219171 -0.786826
569 1 0.0093761 0.323117 0.5 0.292704 -0.319337
570 1 0.111429 0.4917 0.5 0.358763 -0.692662
571 1 0.981952 0.357857 0.5 0.491226 -0.748712
572 1 0.0574801 0.249486 0.5 0.671006 -0.427391
573 1 0.025079 0.233655 0.5 0.216321 -0.603685
574 1 0.0819639 0.356172 0.5 -0.405101 -0.106778
575 1 0.14387 0.25592 0.5 0.48273 -0.628868
576 1 0.0314393 0.304046 0.5 0.830698 -0.512848
577 1 0.0373747 0.313244 0.5 0.725777 -0.497415
578 1 0.0277747 0.35681 0.5 0.366287 -0.679926
579 1 0.0778522 0.524568 0.5 0.363463 -0.760817
580 1 0.21144 0.310159 0.5 0.183412 -0.398009
581 1 0.0486266 0.380544 0.5 0.194846 -0.307231
582 1 0.159551 0.290578 0.5 0.532009 -0.790324
583 1 0.114984 0.185786 0.5 0.609661 -0.556602
584 1 0.077235 0.336123 0.5 0.80641 -0.508409
585 1 0.989276 0.400601 0.5 0.174184 0.373635
586 1 0.0744033 0.23874 0.5 0.58596 -0.737059
587 1 0.0617665 0.239896 0.5 0.697998 -0.553454
588 1 0.0747271 0.29943 0.5 0.229152 -0.603861
589 1 0.158773 0.448656 0.5 0.623941 -0.601393
590 1 0.0776543 0.230152 0.5 0.284401 -0.651323
591 1 0.148847 0.40266 0.5 0.615126 -0.648726
592 1 0.985566 0.42286 0.5 0.17953 -0.726333
593 1 0.162845 0.30756 0.5 0.40097 -0.800153
594 1 0.0491516 0.26891 0.5 0.689101 -0.417082
595 1 0.0468675 0.337583 0.5 0.745369 -0.449595
596 1 0.0563617 0.336256 0.5 0.818593 -0.469836
597 1 0.10997 0.400332 0.5 0.805826 -0.27828
598 1 0.14924 0.432151 0.5 -0.0668114 -0.564923
599 1 0.0921457 0.216439 0.5 0.422564 -0.769073
600 1 0.0590425 0.460051 0.5 0.651336 -0.709282
601 1 0.113297 0.231632 0.5 0.478891 -0.731034
602 1 0.102255 0.261138 0.5 0.570072 -0.739483
603 1 0.0701649 0.219767 0.5 0.627163 -0.646129
604 1 0.0679395 0.293047 0.5 0.432737 -0.610992
605 1 0.123769 0.508015 0.5 0.954725 -0.179415
606 1 0.117196 0.340256 0.5 0.141543 -0.469985
607 1 0.00272882 0.282081 0.5 0.675287 -0.116081
608 1 0.135842 0.33196 0.5 0.268815 -0.821502
609 1 0.0550388 0.27649 0.5 0.743484 -0.59416
610 1 0.0624309 0.379204 0.5 0.328978 0.351792
611 1 0.1066 0.252562 0.5 0.524621 -0.746125
612 1 0.0234396 0.36896 0.5 0.280491 -0.656401
613 1 0.0358598 0.294739 0.5 0.73207 -0.373929
614 1 0.116675 0.470657 0.5 0.707622 -0.28121
615 1 0.981284 0.285388 0.5 -0.335748 -0.403218
616 1 0.160649 0.174673 0.5 0.259959 -0.277
617 1 0.0823121 0.265128 0.5 0.44362 -0.739863
618 1 0.0320156 0.400656 0.5 0.0892079 -0.773529
619 1 0.0555407 0.319068 0.5 0.843078 -0.169096
620 1 0.128897 0.265613 0.5 0.626362 -0.681406
621 1 0.0317241 0.347691 0.5 0.435902 -0.814634
622 1 0.0343629 0.260635 0.5 0.569162 -0.369598
623 1 0.0508043 0.327447 0.5 0.590032 -0.503954
624 1 0.17366 0.437313 0.5 0.369951 -0.215221
625 1 0.18361 0.462309 0.5 0.500153 -0.82612
626 1 0.068858 0.372275 0.5 0.513032 0.205901
627 1 0.0915429 0.370221 0.5 0.0849987 0.299659