ITEM: TIMESTEP
0
ITEM: NUMBER OF ATOMS
9304
ITEM: BOX BOUNDS pp pp pp
-5.8359999999999999e+01 5.8359999999999999e+01
-5.8359999999999999e+01 5.8359999999999999e+01
-5.0000000000000000e-01 5.0000000000000000e-01
ITEM: ATOMS id type xs ys zs c_002[1] c_002[2]
1 1 0.0128655 0.521141 0.5 0.564399 0.534249
2 1 0.913201 0.41313 0.5 -0.637419 0.0357816
3 1 0.19326 0.382315 0.5 0.778449 0.198611
4 1 0.135185 0.254042 0.5 0.197717 -0.0439273
5 1 0.142903 0.26398 0.5 0.148799 -0.610701
6 1 0.254524 0.268753 0.5 0.0314948 -0.429356
7 1 0.00416903 0.277216 0.5 0.257921 0.532965
8 1 0.0237667 0.37131 0.5 -0.324581 0.430485
9 1 0.253799 0.0348487 0.5 0.645254 0.19982
10 1 0.174683 0.356483 0.5 0.549748 -0.330234
11 1 0.0921001 0.178697 0.5 0.153858 -0.0359186
12 1 0.154003 0.576751 0.5 0.551431 -0.292993
13 1 0.233811 0.128164 0.5 0.775915 -0.0920009
14 1 0.0759113 0.351631 0.5 -0.84653 -0.477304
15 1 0.0990817 0.98786 0.5 -0.332262 -0.811079
16 1 0.650708 0.362765 0.5 -0.0601063 -0.639284
17 1 0.116601 0.210926 0.5 0.260996 -0.601711
18 1 0.241064 0.0701988 0.5 0.601437 0.53987
19 1 0.065063 0.258668 0.5 0.265065 0.720996
20 1 0.0024848 0.165963 0.5 -0.386086 -0.131703
21 1 0.59659 0.311931 0.5 0.118787 0.771842
22 1 0.89528 0.454918 0.5 -0.177883 0.0769274
23 1 0.174046 0.15411 0.5 0.546403 0.015981
24 1 0.0109999 0.464658 0.5 -0.727751 0.0686324
25 1 0.0928014 0.111828 0.5 0.245412 -0.548144
26 1 0.287301 0.198621 0.5 0.448145 -0.0338266
27 1 0.0281267 0.440535 0.5 -0.765781 0.472688
28 1 0.0431221 0.647917 0.5 0.35317 -0.722728
29 1 0.147329 0.437615 0.5 -0.782321 0.269104
30 1 0.854911 0.112707 0.5 -0.0918803 0.493778
31 1 0.0709825 0.232451 0.5 0 0
32 1 0.848545 0.171134 0.5 -0.312919 -0.50188
33 1 0.796141 0.370253 0.5 -0.489806 0.317607
34 1 0.0549163 0.214043 0.5 -0.405408 -0.112025
35 1 0.881964 0.585259 0.5 -0.430692 0.479781
36 1 0.299282 0.19703 0.5 0.530606 -0.473961
37 1 0.325239 0.967163 0.5 0.0211968 -0.603288
38 1 0.0824665 0.516736 0.5 -0.107832 0.891292
39 1 0.844978 0.269434 0.5 0.628811 -0.13779
40 1 0.0332211 0.528084 0.5 -0.412684 -0.0818845
41 1 0.0845828 0.277873 0.5 0.472984 -0.0331862
42 1 0.0360588 0.306787 0.5 0.868915 0.0801479
43 1 0.715376 0.104954 0.5 -0.593678 -0.494603
44 1 0.801965 0.197172 0.5 0.299986 -0.395647
45 1 0.851942 0.00195954 0.5 -0.0371941 -0.383283
46 1 0.0194161 0.623638 0.5 -0.129164 -0.746122
47 1 0.0768016 0.467638 0.5 0.162188 -0.359731
48 1 0.801529 0.0343851 0.5 0.0657516 0.0753611
49 1 0.954416 0.0608453 0.5 0.784611 -0.305047
50 1 0.150451 0.291935 0.5 -0.0242594 0.0151573
51 1 0.921835 0.313826 0.5 0.614854 0.218644
52 1 0.975662 0.222697 0.5 -0.196502 -0.763344
53 1 0.0520632 0.0684625 0.5 0.0656394 -0.785256
54 1 0.235663 0.350229 0.5 0.280251 0.455366
55 1 0.791336 0.348376 0.5 0.592578 -0.463283
56 1 0.0025681 0.405766 0.5 -0.170069 0.485906
57 1 0.764368 0.144204 0.5 -0.171928 -0.84027
58 1 0.140399 0.307013 0.5 -0.767617 -0.102091
59 1 0.0929061 0.0334355 0.5 -0.0873165 0.399781
60 1 0.0106475 0.0936502 0.5 0.101513 -0.912874
61 1 0.0740954 0.372276 0.5 -0.828442 -0.524011
62 1 0.94423 0.374519 0.5 0.460302 0.325675
63 1 0.882513 0.548942 0.5 -0.267029 0.287668
64 1 0.0131503 0.418641 0.5 0.0880959 0.00389587
65 1 0.812688 0.255595 0.5 0.295197 -0.611185
66 1 0.003059 0.25935 0.5 0.33317 -0.922227
67 1 0.877181 0.436441 0.5 -0.475372 0.246787
68 1 0.92815 0.306271 0.5 -0.107157 0.0148265
69 1 0.0260102 0.962137 0.5 0.0743988 0.479987
70 1 0.999523 0.312811 0.5 -0.614274 0.10532
71 1 0.904674 0.407269 0.5 -0.325673 -0.13156
72 1 0.91304 0.105518 0.5 0.370566 -0.48339
73 1 0.190723 0.529456 0.5 0.243632 -0.511575
74 1 0.177767 0.081708 0.5 -0.554915 -0.451905
75 1 0.194227 0.148228 0.5 -0.473461 0.184715
76 1 0.0796945 0.401006 0.5 0.831845 0.0702851
77 1 0.829139 0.130404 0.5 0.160303 0.693649
78 1 0.0094003 0.427288 0.5 0.467105 0.168802
79 1 0.925614 0.367962 0.5 -0.552356 -0.056222
80 1 0.213472 0.401916 0.5 -0.0812557 0.837842
81 1 0.0750902 0.166061 0.5 0.435876 0.091275
82 1 0.953886 0.554834 0.5 -0.437612 0.18436
83 1 0.284508 0.345224 0.5 0.390139 0.0540082
84 1 0.168936 0.467364 0.5 -0.759184 0.30621
85 1 0.121323 0.349912 0.5 -0.0529854 0.622386
86 1 0.314724 0.147473 0.5 0.0347903 -0.0288428
87 1 0.0536281 0.299771 0.5 0.00847501 -0.100142
88 1 0.979597 0.280349 0.5 -0.242175 -0.709707
89 1 0.946369 0.458651 0.5 0.20123 0.211544
90 1 0.0120169 0.235706 0.5 0.584463 0.222081
91 1 0.824425 0.0281523 0.5 0.655829 0.39624
92 1 0.102867 0.413759 0.5 -0.138888 0.552466
93 1 0.089161 0.53825 0.5 -0.265512 0.65337
94 1 0.498274 0.141785 0.5 0.337816 -0.182318
95 1 0.0386101 0.26279 0.5 0.500794 0.232205
96 1 0.0486346 0.146022 0.5 -0.806284 0.0422375
97 1 0.951182 0.139672 0.5 0.0201657 -0.450509
98 1 0.152714 0.187157 0.5 -0.338927 -0.548386
99 1 0.0986158 0.186075 0.5 0.298724 -0.136617
100 1 0.91483 0.5458 0.5 -0.0616403 0.00125182
101 1 0.127452 0.101893 0.5 0.557494 0.443607
102 1 0.780991 0.0534437 0.5 0.532437 0.659563
103 1 0.283689 0.246049 0.5 -0.3008 -0.70203
104 1 0.101925 0.371328 0.5 0.268119 -0.195788
105 1 0.118635 0.294182 0.5 -0.250122 0.437165
106 1 0.855245 0.455685 0.5 -0.0174544 0.503412
107 1 0.931087 0.333919 0.5 0.135535 0.0860308
108 1 0.224244 0.435639 0.5 -0.0783763 0.584163
109 1 0.0396213 0.0825615 0.5 -0.0126042 -0.415947
110 1 0.99063 0.421012 0.5 -0.416992 -0.399726
111 1 0.121079 0.303464 0.5 -0.121023 0.324721
112 1 0.0492953 0.262149 0.5 0.329869 0.105079
113 1 0.962004 0.182257 0.5 -0.501392 -0.0521844
114 1 0.921682 0.606411 0.5 -0.689861 -0.526104
115 1 0.124934 0.0404472 0.5 0.647648 0.125916
116 1 0.937925 0.648696 0.5 -0.158096 -0.0221378
117 1 0.884291 0.256604 0.5 0.0234391 -0.788406
118 1 0.0104372 0.443613 0.5 -0.0487182 -0.0495806
119 1 0.878579 0.520057 0.5 -0.436051 0.205995
120 1 0.0391158 0.434213 0.5 0.00965844 -0.0600896
121 1 0.943182 0.316073 0.5 0.872263 0.289235
122 1 0.698049 0.279318 0.5 -0.691775 -0.0539345
123 1 0.129022 0.44782 0.5 -0.388908 0.646628
124 1 0.170079 0.34781 0.5 0.819274 0.0533965
125 1 0.0278392 0.15831 0.5 -0.87313 0.361254
126 1 0.396879 0.107833 0.5 0.0811958 0.0669376
127 1 0.995887 0.381434 0.5 -0.715942 0.489549
128 1 0.954082 0.165916 0.5 -0.586017 -0.699711
129 1 0.96971 0.188188 0.5 0.181886 -0.667207
130 1 0.919346 0.486515 0.5 0.8784 0.0882735
131 1 0.997656 0.539468 0.5 0.238092 0.428458
132 1 0.0863521 0.136882 0.5 -0.236545 -0.118332
133 1 0.20721 0.299008 0.5 -0.392102 -0.785296
134 1 0.242139 0.2189 0.5 -0.553007 0.650336
135 1 0.0933214 0.456616 0.5 0.152297 -0.691749
136 1 0.878405 0.446858 0.5 -0.0839849 0.224754
137 1 0.927868 0.137454 0.5 0.279686 0.517099
138 1 0.135448 0.482333 0.5 0.0247246 0.649952
139 1 0.00325199 0.353144 0.5 -0.679993 -0.465268
140 1 0.000404889 0.19177 0.5 0.547044 -0.1945
141 1 0.179174 0.61111 0.5 0.339764 -0.228395
142 1 0.0862664 0.347238 0.5 -0.327281 -0.76978
143 1 0.804095 0.334393 0.5 0.440356 -0.505117
144 1 0.0298786 0.479036 0.5 0.231156 0.278892
145 1 0.108139 0.983739 0.5 0.270368 -0.587551
146 1 0.993502 0.37039 0.5 -0.339827 0.328063
147 1 0.093681 0.296391 0.5 -0.16223 0.0914695
148 1 0.936636 0.354688 0.5 -0.0559916 -0.912612
149 1 0.833704 0.339088 0.5 0.0242382 -0.343479
150 1 0.925843 0.0877149 0.5 -0.171372 0.739805
151 1 0.0867658 0.169176 0.5 0.0465952 -0.00164253
152 1 0.637583 0.100315 0.5 -0.0420212 -0.742405
153 1 0.0320607 0.518062 0.5 0.0175683 0.251674
154 1 0.0696758 0.400633 0.5 0.566127 -0.230411
155 1 0.141828 0.413755 0.5 -0.268756 0.677411
156 1 0.8841 0.0152967 0.5 -0.796952 0.536408
157 1 0.978709 0.252027 0.5 -0.455564 -0.293182
158 1 0.00394342 0.634523 0.5 0.786454 -0.220134
159 1 0.60576 0.108144 0.5 0.849501 0.0645961
160 1 0.971581 0.168478 0.5 -0.649774 -0.439793
161 1 0.0652426 0.210783 0.5 -0.659485 -0.173888
162 1 0.205723 0.320368 0.5 -0.503776 -0.736594
163 1 0.217058 0.328635 0.5 0.319556 0.488681
164 1 0.0357125 0.725812 0.5 -0.750008 -0.134961
165 1 0.98137 0.335754 0.5 -0.333893 -0.00588132
166 1 0.730506 0.928513 0.5 -0.0878687 -0.753439
167 1 0.939878 0.484711 0.5 0.815012 0.0169614
168 1 0.00820197 0.181226 0.5 -0.336203 0.124719
169 1 0.0684031 0.128975 0.5 0.231751 -0.430659
170 1 0.981813 0.915889 0.5 0.150658 0.184591
171 1 0.0419536 0.239595 0.5 0.562141 0.691543
172 1 0.699437 0.185649 0.5 -0.146696 0.199481
173 1 0.113833 0.467535 0.5 0.45863 0.461712
174 1 0.805399 0.0885308 0.5 0.0652687 -0.589099
175 1 0.851932 0.500924 0.5 -0.358626 -0.523393
176 1 0.128035 0.400228 0.5 -0.10163 0.651533
177 1 0.116465 0.254513 0.5 -0.277421 0.382928
178 1 0.768075 0.532603 0.5 0.327782 0.47886
179 1 0.0567173 0.460309 0.5 -0.136416 -0.121379
180 1 0.0567645 0.0956251 0.5 -0.0265259 -0.758156
181 1 0.27876 0.381333 0.5 0.562659 0.25222
182 1 0.92268 0.416824 0.5 -0.431695 0.80406
183 1 0.844508 0.930553 0.5 0.419331 0.285491
184 1 0.200011 0.341946 0.5 0.544745 -0.533525
185 1 0.8026 0.136699 0.5 0.266683 0.0121673
186 1 0.11262 0.43624 0.5 0.621423 -0.449204
187 1 0.948324 0.209872 0.5 -0.17161 -0.28461
188 1 0.817047 0.387184 0.5 0 0
189 1 0.265333 0.268266 0.5 0.17291 -0.754577
190 1 0.921718 0.113209 0.5 -0.188737 -0.501158
191 1 0.0192398 0.206605 0.5 -0.355726 -0.404547
192 1 0.771555 0.361736 0.5 0.372965 -0.595102
193 1 0.14051 0.0769676 0.5 -0.67986 0.540136
194 1 0.958765 0.450521 0.5 0.00429763 0.653168
195 1 0.915893 0.398655 0.5 0.0865704 0.0892211
196 1 0.107487 0.47592 0.5 -0.13904 0.512653
197 1 0.878955 0.655407 0.5 0.347025 -0.120123
198 1 0.865723 0.559907 0.5 -0.0810278 0.513914
199 1 0.123955 0.0898694 0.5 -0.238872 0.825399
200 1 0.0957609 0.335389 0.5 -0.21751 -0.126427
201 1 0.00597116 0.386784 0.5 -0.61106 0.557364
202 1 0.334389 0.995275 0.5 0.191176 0.00360619
203 1 0.919091 0.350122 0.5 -0.232469 -0.874286
204 1 0.991771 0.159447 0.5 -0.433362 0.0732265
205 1 0.280603 0.282297 0.5 -0.734624 -0.455892
206 1 8.19454e-05 0.444119 0.5 -0.117099 -0.262182
207 1 0.154664 0.492191 0.5 -0.602281 0.139208
208 1 0.832668 0.0692058 0.5 0.0996169 -0.387187
209 1 0.973729 0.501042 0.5 -0.39124 0.107553
210 1 0.874068 0.630339 0.5 0.240283 -0.0444766
211 1 0.180239 0.290898 0.5 -0.363778 0.257273
212 1 0.7195 0.332828 0.5 -0.246408 -0.892211
213 1 0.0559815 0.423109 0.5 0.35303 -0.308167
214 1 0.862706 0.297542 0.5 -0.0366983 -0.152304
215 1 0.251698 0.223246 0.5 -0.33525 0.733557
216 1 0.952893 0.838726 0.5 -0.21674 0.184472
217 1 0.945555 0.297815 0.5 0.209546 0.405604
218 1 0.0975478 0.151686 0.5 -0.260749 0.662924
219 1 0.846628 0.390379 0.5 -0.544819 0.334121
220 1 0.94415 0.22967 0.5 -0.684812 -0.625592
221 1 0.0998446 0.0164696 0.5 -0.295136 0.52858
222 1 0.0330269 0.0752001 0.5 0.0221851 -0.281928
223 1 0.0077489 0.120312 0.5 0.169271 0.136615
224 1 0.821175 0.288241 0.5 0.601081 0.0852404
225 1 0.979836 0.621097 0.5 0.00298387 0.276453
226 1 0.911508 0.343672 0.5 -0.123961 -0.743629
227 1 0.17319 0.269382 0.5 0.0584661 -0.109037
228 1 0.992746 0.495409 0.5 -0.320331 -0.814934
229 1 0.159864 0.348765 0.5 0.548328 0.245958
230 1 0.167142 0.244052 0.5 -0.541332 0.132644
231 1 0.121939 0.109481 0.5 0.274498 0.627385
232 1 0.0816712 0.325149 0.5 0.0507335 -0.450099
233 1 0.917093 0.121679 0.5 0.0551972 -0.34952
234 1 0.147812 0.211627 0.5 -0.817774 -0.340873
235 1 0.150693 0.0919344 0.5 -0.663929 0.529876
236 1 0.0762244 0.337639 0.5 0.352928 -0.000807417
237 1 0.934458 0.526727 0.5 0.769401 0.275082
238 1 0.0746186 0.279912 0.5 0.681321 0.229266
239 1 0.00014656 0.42392 0.5 -0.230413 0.366732
240 1 0.0260443 0.28041 0.5 -0.120168 0.29767
241 1 0.110025 0.319233 0.5 0.000190416 -0.628867
242 1 0.893315 0.417834 0.5 0.0188605 -0.199783
243 1 0.972651 0.23234 0.5 -0.689174 -0.49324
244 1 0.120769 0.371169 0.5 -0.263244 -0.23222
245 1 0.180458 0.939714 0.5 -0.310726 0.163806
246 1 0.765283 0.2626 0.5 0.200291 0.450209
247 1 0.111639 0.221105 0.5 0.0848231 0.074432
248 1 0.0492028 0.506265 0.5 0.480244 -0.44842
249 1 0.803013 0.104503 0.5 0.551861 0.392897
250 1 0.931629 0.0989457 0.5 0.114764 0.0908386
251 1 0.197142 0.601246 0.5 0.605335 -0.662802
252 1 0.927194 0.447969 0.5 -0.393014 -0.675164
253 1 0.743094 0.43836 0.5 -0.462508 -0.742543
254 1 0.793926 0.277356 0.5 0.247452 0.206464
255 1 0.0332705 0.114101 0.5 -0.387191 -0.698422
256 1 0.350775 0.936597 0.5 0.480488 -0.31384
257 1 0.137099 0.336774 0.5 0.161964 0.198715
258 1 0.249968 0.25227 0.5 -0.276121 -0.301312
259 1 0.128916 0.167027 0.5 0.173894 0.262464
260 1 0.210452 0.287603 0.5 0.0463433 -0.760237
261 1 0.125813 0.136109 0.5 0.284508 0.22382
262 1 0.0275207 0.201717 0.5 -0.895932 -0.133113
263 1 0.917089 0.639238 0.5 0.754288 -0.249048
264 1 0.896362 0.340009 0.5 -0.407574 -0.164567
265 1 0.174973 0.250266 0.5 -0.147174 -0.00525636
266 1 0.0070067 0.246033 0.5 0.0332221 -0.190589
267 1 0.196639 0.302557 0.5 -0.243539 -0.276706
268 1 0.00276821 0.434063 0.5 0.195934 0.31444
269 1 0.147961 0.236288 0.5 0.0121716 0.235737
270 1 0.0164152 0.399574 0.5 0.121657 -0.274373
271 1 0.00577449 0.199825 0.5 -0.0198162 0.121938
272 1 0.0116968 0.328315 0.5 -0.326815 0.479822
273 1 0.165936 0.128396 0.5 -0.26507 -0.727261
274 1 0.0489251 0.124926 0.5 -0.440597 -0.137338
275 1 0.0898533 0.980946 0.5 -0.444825 -0.261291
276 1 0.0438183 0.425288 0.5 0.0253591 -0.343661
277 1 0.0497844 0.17565 0.5 -0.273079 0.665848
278 1 0.0864676 0.336905 0.5 0.0815984 -0.418156
279 1 0.963638 0.1978 0.5 -0.116938 -0.206944
280 1 0.158134 0.195594 0.5 -0.155603 -0.615107
281 1 0.981734 0.457974 0.5 -0.394628 -0.203001
282 1 0.694737 0.202968 0.5 0.361993 -0.214673
283 1 0.0651228 0.220714 0.5 -0.433422 0.101522
284 1 0.140664 0.317848 0.5 -0.692846 0.323138
285 1 0.151207 0.88201 0.5 0.123433 0.497845
286 1 0.0814491 0.268533 0.5 0.76694 -0.117471
287 1 0.154238 0.373932 0.5 0.934039 0.0562211
288 1 0.943513 0.436735 0.5 0.123696 0.355406
289 1 0.0513305 0.393734 0.5 -0.12452 -0.219466
290 1 0.98411 0.227872 0.5 -0.233137 -0.692651
291 1 0.821226 0.357573 0.5 -0.548522 0.359485
292 1 0.0758084 0.260528 0.5 0 0
293 1 0.838934 0.722864 0.5 -0.416081 0.3849
294 1 0.903297 0.669659 0.5 0.252112 -0.725782
295 1 0.709963 0.801915 0.5 0.332884 0.28173
296 1 0.782828 0.478379 0.5 -0.564709 -0.0808488
297 1 0.0621476 0.553992 0.5 -0.294739 0.123131
298 1 0.00682131 0.735576 0.5 -0.347303 0.296101
299 1 0.790522 0.40051 0.5 0.800431 0.492758
300 1 0.00764336 0.541149 0.5 0.477856 0.52247
301 1 0.963082 0.568694 0.5 -0.098627 0.143847
302 1 0.964627 0.497458 0.5 -0.248526 0.888334
303 1 0.794346 0.544649 0.5 0.44225 0.491208
304 1 0.0302978 0.390175 0.5 0.562672 -0.432425
305 1 0.952951 0.396433 0.5 0.216616 0.768324
306 1 0.0174369 0.746398 0.5 -0.233681 0.190818
307 1 0.867254 0.712446 0.5 -0.15132 0.657259
308 1 0.0522132 0.496863 0.5 0.519585 -0.0879574
309 1 0.843727 0.595206 0.5 -0.203345 0.0849366
310 1 0.00830541 0.560001 0.5 0.207708 0.307806
311 1 0.0150822 0.308296 0.5 0.681595 -0.43097
312 1 0.926305 0.881923 0.5 -0.934148 0.243453
313 1 0.0642226 0.702774 0.5 0 0
314 1 0.192063 0.612875 0.5 -0.0270486 -0.014318
315 1 0.999103 0.511256 0.5 -0.468977 -0.49632
316 1 0.236115 0.593957 0.5 -0.283926 0.774111
317 1 0.925583 0.752943 0.5 -0.155558 -0.451032
318 1 0.0089226 0.508491 0.5 0.0459122 -0.114188
319 1 0.0133314 0.551758 0.5 0.676783 -0.0153701
320 1 0.883754 0.48113 0.5 0.129512 -0.393989
321 1 0.157575 0.544005 0.5 -0.314177 -0.535385
322 1 0.645839 0.802045 0.5 -0.0121476 0.3472
323 1 0.80975 0.374833 0.5 0.120696 -0.0876574
324 1 0.0248591 0.381061 0.5 0.340875 0.0817024
325 1 0.910867 0.600052 0.5 -0.219061 -0.559509
326 1 0.818309 0.419456 0.5 -0.194125 -0.465917
327 1 0.928846 0.507884 0.5 0.0628319 0.0814843
328 1 0.731402 0.403913 0.5 -0.243147 -0.701436
329 1 0.841385 0.452364 0.5 0.318578 0.169657
330 1 0.82958 0.580822 0.5 -0.444538 -0.536375
331 1 0.961165 0.487184 0.5 0.566488 0.670481
332 1 0.833387 0.269887 0.5 0.61759 0.0549361
333 1 0.868982 0.462805 0.5 -0.410707 0.065913
334 1 0.329604 0.568023 0.5 -0.392172 0.181527
335 1 0.769558 0.252842 0.5 0.528937 -0.110133
336 1 0.213601 0.052894 0.5 0.106477 -0.549999
337 1 0.822978 0.51392 0.5 -0.224597 -0.206818
338 1 0.0382678 0.509719 0.5 0.472859 -0.312663
339 1 0.791172 0.562769 0.5 -0.171363 0.464166
340 1 0.219868 0.609244 0.5 0.0953516 0.433472
341 1 0.803118 0.317212 0.5 0.950918 -0.143125
342 1 0.0996406 0.322836 0.5 0 0
343 1 0.852654 0.598353 0.5 -0.703999 -0.00738405
344 1 0.934403 0.495641 0.5 0.610318 0.0103134
345 1 0.0186677 0.176286 0.5 -0.788797 0.363177
346 1 0.00812563 0.570622 0.5 -0.187152 -0.462041
347 1 0.682952 0.504204 0.5 -0.123268 -0.173049
348 1 0.935784 0.400649 0.5 0.42542 0.483833
349 1 0.855059 0.38385 0.5 -0.147796 0.107051
350 1 0.925035 0.574141 0.5 -0.367932 -0.529113
351 1 0.0758212 0.450736 0.5 0.785954 -0.321444
352 1 0.812855 0.35267 0.5 -0.536518 0.350914
353 1 0.095828 0.345131 0.5 -0.518179 -0.491487
354 1 0.0828488 0.558084 0.5 0.786625 -0.407183
355 1 0.720833 0.713039 0.5 0.670416 -0.338177
356 1 0.906345 0.732248 0.5 -0.306477 -0.671411
357 1 0.0315342 0.326775 0.5 -0.313673 -0.431688
358 1 0.866708 0.452848 0.5 -0.0897834 0.316756
359 1 0.916414 0.36372 0.5 0.0189347 0.0997522
360 1 0.745185 0.583011 0.5 -0.950459 0.0608022
361 1 0.668721 0.765909 0.5 0.118635 0.354448
362 1 0.679267 0.740803 0.5 0.489276 0.558234
363 1 0.252084 0.344183 0.5 0.290865 0.850844
364 1 0.897424 0.806441 0.5 0.893006 0.0698585
365 1 0.791615 0.669262 0.5 0.311872 0.749847
366 1 0.108028 0.397114 0.5 0.0343988 0.125641
367 1 0.319482 0.639686 0.5 -0.616518 0.451188
368 1 0.960052 0.589886 0.5 -0.1656 0.0645362
369 1 0.840659 0.574109 0.5 -0.673319 -0.276773
370 1 0.694114 0.731601 0.5 0.759041 -0.252438
371 1 0.813085 0.484948 0.5 0.340038 0.0245691
372 1 0.925356 0.498866 0.5 0.406213 0.218256
373 1 0.275575 0.691472 0.5 0.540321 -0.00196163
374 1 0.68082 0.836963 0.5 0.235093 0.195864
375 1 0.954294 0.315835 0.5 0.480914 0.594141
376 1 0.0308615 0.298763 0.5 0.89575 0.0426218
377 1 0.856535 0.480157 0.5 -0.487052 -0.499651
378 1 0.808985 0.475543 0.5 -0.277808 -0.178287
379 1 0.982773 0.326165 0.5 -0.0610562 -0.280282
380 1 0.690548 0.804518 0.5 0.257033 -0.46245
381 1 0.823823 0.368601 0.5 -0.0633438 0.43041
382 1 0.114134 0.553763 0.5 0.565305 -0.271497
383 1 0.856483 0.720711 0.5 -0.424006 0.346922
384 1 0.0339702 0.554488 0.5 0.290974 0.184892
385 1 0.866188 0.392782 0.5 -0.312544 -0.0574152
386 1 0.886676 0.472007 0.5 -0.165887 0.0706892
387 1 0.012721 0.487271 0.5 -0.294236 0.295043
388 1 0.587214 0.753294 0.5 -0.134555 0.511523
389 1 0.587685 0.234189 0.5 -0.256355 -0.501625
390 1 0.916143 0.455188 0.5 0.435697 0.442853
391 1 0.817647 0.470873 0.5 -0.298758 -0.419421
392 1 0.699229 0.868763 0.5 0.694073 -0.253665
393 1 0.441117 0.257764 0.5 0.521164 -0.259552
394 1 0.804588 0.595378 0.5 0.378649 0.475395
395 1 0.776233 0.191985 0.5 0.67862 0.561293
396 1 0.159942 0.462721 0.5 -0.402174 0.0309563
397 1 0.0207901 0.676578 0.5 -0.632626 0.382418
398 1 0.940735 0.757978 0.5 0.400907 0.382282
399 1 0.972255 0.270831 0.5 0.132814 -0.460733
400 1 0.929994 0.631547 0.5 -0.0125661 -0.0108643
401 1 0.960334 0.577802 0.5 -0.465141 0.0706088
402 1 0.773966 0.483878 0.5 -0.0569453 -0.605139
403 1 0.649774 0.744268 0.5 0.294973 0.732136
404 1 0.833734 0.739538 0.5 -0.10722 0.613707
405 1 0.873779 0.553829 0.5 -0.84783 0.282353
406 1 0.771772 0.572891 0.5 -0.788932 -0.142624
407 1 0.974766 0.526091 0.5 0.095628 -0.227765
408 1 0.925404 0.563626 0.5 -0.77654 -0.289906
409 1 0.893197 0.38041 0.5 0.65503 -0.092276
410 1 0.724372 0.704019 0.5 -0.00427104 -0.37422
411 1 0.985837 0.297483 0.5 -0.0805171 -0.508288
412 1 0.827604 0.403907 0.5 -0.00403129 0.575694
413 1 0.850025 0.629386 0.5 -0.072532 0.523301
414 1 0.999702 0.564667 0.5 -0.585907 -0.662222
415 1 0.0433215 0.474436 0.5 0.379326 -0.0420194
416 1 0.99559 0.283196 0.5 -0.471063 0.00627682
417 1 0.914342 0.433501 0.5 -0.507158 -0.37101
418 1 0.732263 0.94906 0.5 0.290314 -0.416249
419 1 0.239992 0.267346 0.5 0.0379112 0.131789
420 1 0.60996 0.768517 0.5 0.484344 -0.481655
421 1 0.878641 0.574498 0.5 -0.131584 0.763315
422 1 0.838139 0.670696 0.5 -0.228899 -0.653796
423 1 0.726782 0.574049 0.5 -0.519287 0.0475142
424 1 0.780147 0.63846 0.5 -0.598635 -0.00348304
425 1 0.564946 0.60926 0.5 -0.302532 -0.422984
426 1 0.792514 0.714629 0.5 0.57097 -0.0908498
427 1 0.925428 0.554264 0.5 -0.912371 -0.201525
428 1 0.696939 0.848064 0.5 0.688393 0.529588
429 1 0.945518 0.473775 0.5 0.472482 0.110769
430 1 0.0617935 0.247267 0.5 -0.384807 0.640095
431 1 0.876005 0.21041 0.5 0.512915 -0.237856
432 1 0.0410352 0.371919 0.5 -0.105378 0.180188
433 1 0.902642 0.377968 0.5 0.308429 -0.152915
434 1 0.899526 0.387626 0.5 0.4304 -0.855579
435 1 0.804781 0.519216 0.5 0.134836 0.89918
436 1 0.811785 0.556524 0.5 0.1464 0.0803005
437 1 0.0283112 0.631251 0.5 -0.166369 -0.83816
438 1 0.919959 0.802403 0.5 -0.513041 0.00111617
439 1 0.00691335 0.01366 0.5 -0.267894 -0.104863
440 1 0.688009 0.660117 0.5 -0.345485 0.264585
441 1 0.771951 0.631855 0.5 -0.331745 0.109815
442 1 0.979241 0.534294 0.5 0.243905 0.582045
443 1 0.0998512 0.512676 0.5 0.549181 0.721758
444 1 0.974138 0.770321 0.5 -0.192329 -0.244178
445 1 0.905463 0.438458 0.5 0.0248253 -0.461994
446 1 0.943797 0.251742 0.5 0.000965697 0.192145
447 1 0.657199 0.31098 0.5 -0.322684 -0.721684
448 1 0.0296535 0.450164 0.5 -0.527812 0.463613
449 1 0.551546 0.153834 0.5 -0.0363117 0.0161935
450 1 0.768972 0.694658 0.5 -0.298311 0.654292
451 1 0.894165 0.492417 0.5 0.269994 0.133916
452 1 0.946528 0.569465 0.5 0.127166 0.0588144
453 1 0.872338 0.778662 0.5 -0.270276 0.635381
454 1 0.92721 0.322073 0.5 0.272827 0.505508
455 1 0.00125685 0.653766 0.5 0.396567 0.298634
456 1 0.760852 0.844785 0.5 -0.181561 0.660761
457 1 0.966102 0.621425 0.5 0.653191 -0.524717
458 1 0.915662 0.728658 0.5 -0.0722399 -0.23608
459 1 0.980863 0.578218 0.5 -0.0400658 0.192509
460 1 0.861925 0.77585 0.5 -0.468504 0.162803
461 1 0.947921 0.537288 0.5 0.156001 -0.339469
462 1 0.0421531 0.495698 0.5 0.246617 0.497865
463 1 0.965239 0.379176 0.5 -0.00878908 0.779234
464 1 0.199796 0.537362 0.5 -0.297513 -0.138098
465 1 0.889176 0.77679 0.5 0.37219 0.249203
466 1 0.973476 0.452132 0.5 -0.149353 -0.19787
467 1 0.889236 0.612726 0.5 0.02918 -0.208395
468 1 0.701851 0.385146 0.5 0.0839423 0.630435
469 1 0.936702 0.83013 0.5 0.31558 -0.157099
470 1 0.836919 0.176545 0.5 -0.734903 0.0100166
471 1 0.900473 0.173977 0.5 0.3606 -0.34045
472 1 0.667608 0.689635 0.5 0.378177 0.360034
473 1 0.13128 0.461182 0.5 -0.843118 0.318756
474 1 0.811549 0.174854 0.5 0.400131 -0.726275
475 1 0.728936 0.329972 0.5 -0.202514 -0.960973
476 1 0.973885 0.362179 0.5 -0.0970308 -0.74986
477 1 0.927838 0.622027 0.5 -0.304041 0.0620002
478 1 0.831091 0.496714 0.5 -0.187713 0.338696
479 1 0.950076 0.595521 0.5 -0.313775 -0.391414
480 1 0.111681 0.173935 0.5 0.801355 -0.0621455
481 1 0.0307051 0.459957 0.5 0.255656 0.279916
482 1 0.894574 0.560952 0.5 -0.414344 0.673069
483 1 0.279574 0.295286 0.5 0.335832 -0.0453417
484 1 0.955751 0.6606 0.5 0.545498 -0.68926
485 1 0.11194 0.345821 0.5 -0.29837 -0.133376
486 1 0.732304 0.452741 0.5 -0.470121 -0.299689
487 1 0.866161 0.639885 0.5 0.258709 0.638342
488 1 0.900917 0.473834 0.5 0.48899 0.20693
489 1 0.746661 0.677815 0.5 0.112485 0.0173104
490 1 0.94402 0.393546 0.5 0.0555142 0.338593
491 1 0.986937 0.603453 0.5 0.224364 0.0334203
492 1 0.74799 0.416877 0.5 -0.403886 -0.198092
493 1 0.903871 0.533909 0.5 -0.279684 0.516357
494 1 0.737599 0.495925 0.5 -0.0700143 0.416262
495 1 0.814651 0.932692 0.5 0.326627 0.46134
496 1 0.956056 0.258197 0.5 -0.24185 -0.0879944
497 1 0.308539 0.611962 0.5 -0.159319 -0.370438
498 1 0.858174 0.622128 0.5 0.431714 0.325557
499 1 0.859335 0.183064 0.5 0.297372 0.2175
500 1 0.063591 0.432285 0.5 0.721797 -0.598692
501 1 0.0377966 0.484637 0.5 0.250764 0.479535
502 1 0.819712 0.766333 0.5 0.041211 0.0431508
503 1 0.0778505 0.549881 0.5 0.26545 0.00318325
504 1 0.0410055 0.544641 0.5 -0.283239 0.631524
505 1 0.740932 0.64782 0.5 0.516602 0.185449
506 1 0.854098 0.769958 0.5 -0.766184 -0.469894
507 1 0.998266 0.682089 0.5 0.677835 0.485935
508 1 0.910491 0.371218 0.5 0.188545 0.229744
509 1 0.737473 0.863141 0.5 0.243953 -0.551066
510 1 0.929928 0.410494 0.5 0.30752 0.745678
511 1 0.86632 0.47361 0.5 -0.366711 -0.547116
512 1 0.0126771 0.693716 0.5 0.292926 0.462992
513 1 0.728469 0.688383 0.5 0.235643 0.667775
514 1 0.621898 0.789722 0.5 0.158993 0.675197
515 1 0.99097 0.2614 0.5 0.193924 -0.142987
516 1 0.0650183 0.451368 0.5 0.560767 -0.192699
517 1 0.910721 0.806791 0.5 -0.175521 -0.0977149
518 1 0.669143 0.576156 0.5 -0.438443 0.158477
519 1 0.0178519 0.511812 0.5 0.480806 0.0858272
520 1 0.775306 0.616466 0.5 -0.419006 -0.335945
521 1 0.759515 0.9846 0.5 0.178521 0.022674
522 1 0.200376 0.371862 0.5 0.748363 0.439108
523 1 0.238939 0.503348 0.5 0.211133 0.0962464
524 1 0.923896 0.650907 0.5 0.518259 -0.228924
525 1 0.884976 0.646637 0.5 0 0
526 1 0.120832 0.836277 0.5 0.670527 -0.511157
527 1 0.0193263 0.447977 0.5 -0.470068 0.625188
528 1 0.0334013 0.365714 0.5 -0.571675 -0.280691
529 1 0.972406 0.338884 0.5 -0.488379 0.43363
530 1 0.0731616 0.391568 0.5 0.406996 -0.182993
531 1 0.939862 0.704085 0.5 -0.179162 -0.158483
532 1 0.74743 0.530675 0.5 -0.319853 0.288612
533 1 0.945743 0.403897 0.5 0.220174 0.757626
534 1 0.811362 0.286812 0.5 0.499407 0.588491
535 1 0.0577933 0.532364 0.5 -0.478194 0.734363
536 1 0.7482 0.860606 0.5 0.345691 -0.287806
537 1 0.984285 0.400385 0.5 0.315102 -0.403871
538 1 0.249767 0.467649 0.5 0.192376 0.824622
539 1 0.647721 0.822252 0.5 0.392153 -0.617028
540 1 0.856161 0.681618 0.5 -0.138707 0.543714
541 1 0.889122 0.522314 0.5 0.321387 -0.219202
542 1 0.93362 0.315134 0.5 0.638897 0.393699
543 1 0.689253 0.674374 0.5 -0.337388 -0.18879
544 1 0.895845 0.539202 0.5 -0.417667 -0.213885
545 1 0.870396 0.600368 0.5 -0.334354 -0.222425
546 1 0.918843 0.0394378 0.5 -0.412595 -0.34535
547 1 0.946654 0.683816 0.5 -0.606643 -0.0822961
548 1 0.0354223 0.247559 0.5 0.360253 0.246912
549 1 0.922495 0.52634 0.5 0.835499 0.224633
550 1 0.82553 0.64949 0.5 0.256298 0.879252
551 1 0.95288 0.427988 0.5 -0.759866 0.449303
552 1 0.0498939 0.538921 0.5 -0.358129 0.780197
553 1 0.0167863 0.288389 0.5 0.0883419 0.592697
554 1 0.573033 0.741306 0.5 -0.101302 0.911364
555 1 0.0579423 0.443698 0.5 0.636501 -0.145364
556 1 0.173955 0.579589 0.5 0.196574 -0.176076
557 1 0.745369 0.187103 0.5 0.276476 0.18266
558 1 0.911747 0.611037 0.5 -0.335704 -0.390022
559 1 0.809261 0.626813 0.5 0.126832 0.539311
560 1 0.591206 0.620343 0.5 -0.595056 0.24011
561 1 0.976858 0.516764 0.5 0.21146 -0.733004
562 1 0.947384 0.351509 0.5 0.00907326 -0.116246
563 1 0.0475616 0.464939 0.5 -0.0664944 -0.654519
564 1 0.893094 0.795603 0.5 0.679293 0.105077
565 1 0.980833 0.433572 0.5 -0.476325 0.122628
566 1 0.964103 0.791157 0.5 0.667675 -0.43123
567 1 0.768118 0.74585 0.5 0.209984 -0.534264
568 1 0.745451 0.57113 0.5 -0.859567 -0.0467241
569 1 0.782374 0.465435 0.5 -0.189993 0.57021
570 1 0.605471 0.603599 0.5 0.373157 0.520923
571 1 0.848604 0.654438 0.5 -0.451616 0.206513
572 1 0.316156 0.626079 0.5 0.424526 0.0122351
573 1 0.822276 0.348198 0.5 -0.572117 0.0696382
574 1 0.195555 0.332087 0.5 0.590446 0.137284
575 1 0.793957 0.592662 0.5 -0.0429669 0.549009
576 1 0.038764 0.279481 0.5 0.383912 -0.442319
577 1 0.894094 0.406308 0.5 -0.0706756 -0.570498
578 1 0.906513 0.296422 0.5 0 0
579 1 0.827657 0.453497 0.5 -0.132032 -0.261521
580 1 0.709538 0.775441 0.5 -0.366294 0.306892
581 1 0.54309 0.112126 0.5 0.494233 0.477546
582 1 0.990871 0.430541 0.5 -0.688054 0.0934158
583 1 0.840106 0.527913 0.5 0.170219 -0.369963
584 1 0.00423264 0.674555 0.5 0.214509 -0.0286621
585 1 0.00614049 0.580122 0.5 0.356559 -0.300783
586 1 0.0108286 0.475757 0.5 -0.473361 0.288721
587 1 0.896193 0.571576 0.5 0.0355899 0.528283
588 1 0.851419 0.445897 0.5 0.211354 0.213352
589 1 0.750227 0.711138 0.5 -0.0310306 -0.0735185
590 1 0.746101 0.558961 0.5 -0.700403 0.228662
591 1 0.763837 0.567634 0.5 -0.571682 0.398692
592 1 0.965129 0.294104 0.5 0.04196 -0.191887
593 1 0.750738 0.502992 0.5 0.490204 0.206412
594 1 0.843822 0.823188 0.5 -0.153873 -0.0818904
595 1 0.24685 0.187325 0.5 -0.570488 -0.472515
596 1 0.25581 0.547007 0.5 0.463628 -0.500765
597 1 0.962999 0.422618 0.5 -0.66553 -0.108493
598 1 0.67331 0.918581 0.5 -0.518178 -0.810845
599 1 0.620265 0.681216 0.5 -0.881328 -0.00020807
600 1 0.81729 0.859618 0.5 0.776302 -0.113043
601 1 0.77238 0.464071 0.5 0.513122 0.172941
602 1 0.819285 0.666952 0.5 -0.757925 0.502927
603 1 0.720688 0.969988 0.5 0.1029 -0.264277
604 1 0.726007 0.606873 0.5 -0.596937 -0.225164
605 1 0.627714 0.0231279 0.5 0.591158 0.157054
606 1 0.575753 0.606989 0.5 0.58316 -0.341008
607 1 0.897224 0.660875 0.5 0.531555 -0.485478
608 1 0.826193 0.891359 0.5 -0.109929 0.505099
609 1 0.606325 0.80297 0.5 0.463141 0.282537
610 1 0.788911 0.904092 0.5 0.711934 0.438701
611 1 0.507739 0.687105 0.5 -0.221192 0.26007
612 1 0.753772 0.6591 0.5 -0.36079 -0.107108
613 1 0.677401 0.647099 0.5 -0.351706 0.622752
614 1 0.844802 0.866413 0.5 -0.930608 -0.205863
615 1 0.65436 0.82941 0.5 0.296345 -0.86312
616 1 0.470681 0.622137 0.5 -0.208924 0.424428
617 1 0.761292 0.156618 0.5 -0.467294 -0.531906
618 1 0.753595 0.972342 0.5 0.253304 0.53144
619 1 0.609501 0.0502475 0.5 0.381642 0.12186
620 1 0.798517 0.694675 0.5 0.219627 -0.837112
621 1 0.666881 0.738764 0.5 0.231989 0.838836
622 1 0.726952 0.886443 0.5 -0.743972 -0.523198
623 1 0.731573 0.989574 0.5 -0.537946 -0.769693
624 1 0.775912 0.889409 0.5 -0.185505 0.00437597
625 1 0.51815 0.730004 0.5 -0.0775173 0.251309
626 1 0.767117 0.892534 0.5 -0.0912925 -0.0437474
627 1 0.749268 0.540183 0.5 -0.0941071 0.547746
628 1 0.642238 0.854585 0.5 -0.343289 -0.504817
629 1 0.365688 0.819956 0.5 0.423907 0.885526
630 1 0.444458 0.74528 0.5 -0.0268705 -0.592778
631 1 0.770561 0.44723 0.5 0.393454 -0.814053
632 1 0.681208 0.889452 0.5 0.129338 -0.886678
633 1 0.943746 0.588347 0.5 -0.353878 -0.324822
634 1 0.775043 0.0432324 0.5 0.308315 -0.294355