ITEM: TIMESTEP
0
ITEM: NUMBER OF ATOMS
9304
ITEM: BOX BOUNDS pp pp pp
-5.8359999999999999e+01 5.8359999999999999e+01
-5.8359999999999999e+01 5.8359999999999999e+01
-5.0000000000000000e-01 5.0000000000000000e-01
ITEM: ATOMS id type xs ys zs c_002[1] c_002[2]
1 1 0.946322 0.230117 0.5 0.680987 -0.319707
2 1 0.132972 0.110591 0.5 0.438842 0.414203
3 1 0.0816756 0.0496555 0.5 0.52371 0.39693
4 1 0.284084 0.206411 0.5 -0.700048 -0.430321
5 1 0.17363 0.760871 0.5 -0.358872 0.172708
6 1 0.480046 0.226319 0.5 0.190009 -0.066829
7 1 0.98674 0.862234 0.5 0.774799 -0.406326
8 1 0.841872 0.319358 0.5 0.567495 -0.608211
9 1 0.156402 0.697793 0.5 -0.25486 -0.297587
10 1 0.859975 0.815473 0.5 0.204398 0.372081
11 1 0.0328277 0.689566 0.5 -0.0494133 0.431513
12 1 0.0569526 0.0651764 0.5 0.26406 0.724368
13 1 0.109983 0.973885 0.5 0.347929 -0.304961
14 1 0.113015 0.0323565 0.5 0.205548 -0.305575
15 1 0.983899 0.604981 0.5 -0.26168 0.274913
16 1 0.496697 0.0740147 0.5 -0.135316 -0.277478
17 1 0.246812 0.871894 0.5 0.274545 -0.0702591
18 1 0.253511 0.789204 0.5 -0.412061 -0.33726
19 1 0.137123 0.0157125 0.5 -0.546805 -0.0696852
20 1 0.00751705 0.131411 0.5 0.510185 0.140064
21 1 0.533444 0.365129 0.5 -0.960265 -0.20819
22 1 0.441728 0.0831816 0.5 0.555491 -0.695521
23 1 0.854508 0.913459 0.5 -0.106308 0.239273
24 1 0.760117 0.353341 0.5 -0.755675 -0.0905147
25 1 0.921698 0.794989 0.5 0.281635 -0.64169
26 1 0.23265 0.0204032 0.5 0.45837 0.167892
27 1 0.744518 0.202203 0.5 0.725741 -0.0556361
28 1 0.638918 0.435763 0.5 0 0
29 1 0.845035 0.209094 0.5 -0.248614 0.0699257
30 1 0.683577 0.142655 0.5 -0.0682888 -0.626656
31 1 0.0695903 0.878528 0.5 0.550539 -0.0690296
32 1 0.413979 0.896301 0.5 -0.27632 -0.817961
33 1 0.695924 0.324581 0.5 -0.805981 -0.211643
34 1 0.22495 0.7264 0.5 -0.654785 0.449086
35 1 0.605425 0.331692 0.5 -0.551575 0.37811
36 1 0.396315 0.835611 0.5 0.185656 -0.346997
37 1 0.987281 0.493907 0.5 0.139509 0.762779
38 1 0.935762 0.38993 0.5 -0.467211 -0.377777
39 1 0.811178 0.258087 0.5 -0.204831 0.511218
40 1 0.703695 0.201243 0.5 0.551724 -0.344418
41 1 0.903786 0.922344 0.5 -0.192959 0.739027
42 1 0.921503 0.882782 0.5 0.440207 -0.073444
43 1 0.750395 0.00196236 0.5 -0.622855 -0.423216
44 1 0.848485 0.00587907 0.5 0.118625 0.0873812
45 1 0.965092 0.702132 0.5 0.419809 0.146919
46 1 0.791008 0.343803 0.5 -0.161466 0.512625
47 1 0.991251 0.295329 0.5 -0.619736 0.215666
48 1 0.713798 0.970634 0.5 0.186468 -0.0608642
49 1 0.8842 0.482301 0.5 -0.367078 -0.205828
50 1 0.932377 0.884733 0.5 0.168442 0.41528
51 1 0.850203 0.395292 0.5 0.185639 0.644141
52 1 0.937564 0.865769 0.5 0.280136 -0.200631
53 1 0.684042 0.927811 0.5 -0.39406 0.258987
54 1 0.908624 0.964779 0.5 -0.0416637 -0.154046
55 1 0.760821 0.362965 0.5 -0.379783 0.0293523
56 1 0.75484 0.279993 0.5 0.409267 -0.0400034
57 1 0.766374 0.298937 0.5 0.434886 0.618182
58 1 0.658413 0.192775 0.5 -0.042048 0.027007
59 1 0.487328 0.84652 0.5 -0.132687 0.314317
60 1 0.890576 0.269775 0.5 -0.0855342 0.0125883
61 1 0.212223 0.894717 0.5 -0.0707733 0.0841759
62 1 0.774758 0.0826458 0.5 0.0699271 0.55507
63 1 0.89735 0.365965 0.5 0.171525 0.681449
64 1 0.00316833 0.289304 0.5 -0.670086 -0.250084
65 1 0.519928 0.0971787 0.5 0.335373 -0.236832
66 1 0.805352 0.860273 0.5 -0.252996 -0.272581
67 1 0.467526 0.272529 0.5 0.142148 -0.530077
68 1 0.851828 0.994359 0.5 0.313465 -0.790497
69 1 0.812243 0.706469 0.5 -0.248618 -0.0425526
70 1 0.190809 0.871269 0.5 -0.63908 0.72106
71 1 0.793959 0.0974491 0.5 0.0438261 0.44191
72 1 0.568744 0.733052 0.5 -0.178786 -0.486307
73 1 0.279393 0.29707 0.5 -0.133121 -0.195555
74 1 0.000406013 0.495662 0.5 0.331432 0.868898
75 1 0.267367 0.543906 0.5 -0.509425 0.0754796
76 1 0.853669 0.490357 0.5 -0.510118 -0.327012
77 1 0.664295 0.840577 0.5 0.243389 -0.506502
78 1 0.806241 0.415099 0.5 0.29311 -0.0820353
79 1 0.71629 0.435836 0.5 -0.124965 -0.256077
80 1 0.786711 0.353423 0.5 -0.190254 0.300225
81 1 0.925025 0.996111 0.5 -0.484481 -0.704766
82 1 0.937179 0.211597 0.5 0.875941 0.298002
83 1 0.347706 0.160591 0.5 -0.19049 -0.497501
84 1 0.234525 0.316871 0.5 -0.0365665 0.142537
85 1 0.824275 0.0326071 0.5 0.525603 0.0806061
86 1 0.125423 0.793657 0.5 0.196966 0.621138
87 1 0.792132 0.666803 0.5 -0.26386 0.331659
88 1 0.863087 0.00980707 0.5 -0.0763539 -0.0180183
89 1 0.981454 0.438002 0.5 0.764149 -0.0223124
90 1 0.783626 0.394524 0.5 -0.126567 0.0279245
91 1 0.569516 0.963527 0.5 0.499424 -0.410781
92 1 0.838292 0.253997 0.5 -0.307796 0.470093
93 1 0.0223675 0.00538791 0.5 0.761873 0.276641
94 1 0.284375 0.721312 0.5 -0.125471 -0.271996
95 1 0.188129 0.0740113 0.5 -0.185873 -0.396131
96 1 0.71451 0.112052 0.5 -0.262606 0.347541
97 1 0.765011 0.0820962 0.5 -0.0648464 0.13866
98 1 0.0220603 0.740937 0.5 -0.242692 0.161553
99 1 0.977906 0.761608 0.5 0.70911 0.00944703
100 1 0.823668 0.313309 0.5 0.202823 -0.945454
101 1 0.482143 0.0294523 0.5 -0.69313 -0.239714
102 1 0.773698 0.796791 0.5 0.147743 -0.103696
103 1 0.368754 0.11076 0.5 -0.621977 0.340254
104 1 0.922172 0.0065199 0.5 -0.0574406 -0.642392
105 1 0.998886 0.00580265 0.5 -0.38771 -0.0204254
106 1 0.74021 0.23209 0.5 0.120635 -0.0929818
107 1 0.798 0.327283 0.5 0.0123989 -0.191766
108 1 0.0516085 0.0555624 0.5 0.0459649 0.498194
109 1 0.799387 0.629146 0.5 -0.832771 -0.337359
110 1 0.829862 0.168452 0.5 -0.0398493 -0.0412522
111 1 0.85754 0.751544 0.5 0.669794 0.0992281
112 1 0.801411 0.222652 0.5 0.969106 -0.0445898
113 1 0.771294 0.290204 0.5 0.346718 0.677527
114 1 0.760405 0.436813 0.5 0.0482751 -0.0586916
115 1 0.23011 0.614211 0.5 -0.440847 0.35259
116 1 0.723903 0.33025 0.5 -0.592179 0.270882
117 1 0.493376 0.0548158 0.5 -0.775715 -0.220002
118 1 0.884654 0.340973 0.5 -0.393141 -0.343013
119 1 0.665542 0.803337 0.5 0.148335 -0.448586
120 1 0.00231995 0.388546 0.5 -0.412374 -0.316106
121 1 0.881108 0.146596 0.5 0.163902 -0.373365
122 1 0.67648 0.205843 0.5 -0.550781 0.181122
123 1 0.723659 0.1163 0.5 -0.535327 -0.122381
124 1 0.151137 0.905826 0.5 0.0365611 -0.126122
125 1 0.041404 0.847637 0.5 0.234625 0.118482
126 1 0.250818 0.455758 0.5 -0.209972 -0.288212
127 1 0.904304 0.0870461 0.5 0.119564 0.293367
128 1 0.0623466 0.950702 0.5 -0.133863 -0.343616
129 1 0.868909 0.173742 0.5 -0.0837664 -0.0893131
130 1 0.792037 0.222729 0.5 0.336181 0.0205552
131 1 0.539652 0.134447 0.5 0.681924 -0.368853
132 1 0.10955 0.776457 0.5 0.1174 -0.125148
133 1 0.0253313 0.918567 0.5 -0.0865377 -0.285468
134 1 0.26355 0.0178785 0.5 0.237678 0.501726
135 1 0.0163918 0.264747 0.5 -0.175199 -0.175674
136 1 0.877237 0.456557 0.5 -0.755762 -0.45278
137 1 0.712921 0.862114 0.5 -0.241913 -0.485136
138 1 0.141705 0.161806 0.5 -0.108927 0.260195
139 1 0.810307 0.13576 0.5 -0.354215 -0.135282
140 1 0.638074 0.0597648 0.5 0.820188 0.335023
141 1 0.811484 0.205375 0.5 0.796167 0.0384479
142 1 0.669644 0.102075 0.5 0.434004 -0.000317572
143 1 0.536802 0.254051 0.5 -0.384076 -0.182598
144 1 0.161332 0.042084 0.5 0.565069 -0.271995
145 1 0.48981 0.719816 0.5 0 0
146 1 0.64918 0.42663 0.5 0.0794903 0.0326833
147 1 0.0932997 0.992138 0.5 0.170676 -0.210477
148 1 0.581703 0.350787 0.5 -0.111587 0.490007
149 1 0.983109 0.251931 0.5 0.867517 -0.0178278
150 1 0.730051 0.988576 0.5 -0.486588 0.03131
151 1 0.776075 0.748785 0.5 0.688988 -0.102507
152 1 0.395299 0.738695 0.5 0.242997 0.172119
153 1 0.967188 0.290454 0.5 0.612369 -0.0908358
154 1 0.891757 0.357306 0.5 0.64239 -0.0435568
155 1 0.948186 0.52403 0.5 0.615947 0.265479
156 1 0.5651 0.906905 0.5 0.640119 -0.175771
157 1 0.853291 0.0365231 0.5 0.595602 0.0251398
158 1 0.665826 0.531072 0.5 0.0666726 0.200433
159 1 0.770164 0.143047 0.5 0.0191309 0.215497
160 1 0.752538 0.850246 0.5 0.69978 0.344884
161 1 0.811272 0.221987 0.5 0.514533 0.192242
162 1 0.0142377 0.948315 0.5 -0.697509 -0.171298
163 1 0.108879 0.920994 0.5 0.7214 -0.58209
164 1 0.642579 0.503864 0.5 0 0
165 1 0.118708 0.101394 0.5 0.729492 -0.145188
166 1 0.425282 0.748134 0.5 0.969265 0.0939036
167 1 0.837866 0.0663751 0.5 0.342233 -0.687624
168 1 0.842647 0.863411 0.5 0.333487 -0.367369
169 1 0.900561 0.913151 0.5 -0.303904 0.527973
170 1 0.0578897 0.900771 0.5 0.203507 0.592912
171 1 0.897489 0.729828 0.5 -0.627516 0.646681
172 1 0.588323 0.201193 0.5 -0.122887 -0.337343
173 1 0.161438 0.159397 0.5 -0.197914 -0.330184
174 1 0.746513 0.860164 0.5 0.17116 0.427799
175 1 0.592065 0.476961 0.5 -0.510502 -0.252979
176 1 0.921723 0.0838653 0.5 0.0133696 0.347352
177 1 0.166723 0.0288481 0.5 -0.538545 0.132002
178 1 0.688052 0.685642 0.5 -0.280224 0.0145774
179 1 0.916343 0.156447 0.5 0.2325 0.171054
180 1 0.807396 0.0119503 0.5 0.129678 0.638412
181 1 0.0590044 0.0761734 0.5 -0.0147442 0.449184
182 1 0.684402 0.318305 0.5 -0.0956179 0.50582
183 1 0.914152 0.704034 0.5 -0.465915 0.435904
184 1 0.930142 0.190954 0.5 0.633284 0.486998
185 1 0.520684 0.817451 0.5 0.0598335 0.770655
186 1 0.764453 0.0915412 0.5 -0.25885 0.591712
187 1 0.86531 0.0447534 0.5 0.173865 -0.184441
188 1 0.674686 0.536066 0.5 -0.390341 0.484541
189 1 0.388205 0.128517 0.5 -0.145127 -0.0400739
190 1 0.76219 0.954176 0.5 -0.471963 -0.479775
191 1 0.891284 0.0952633 0.5 -0.022808 -0.206757
192 1 0.528191 0.17198 0.5 0.188051 0.595366
193 1 0.0899005 0.699456 0.5 0.432311 0.322253
194 1 0.58547 0.403551 0.5 0.625097 0.0351675
195 1 0.643606 0.534124 0.5 0.0927166 -0.331581
196 1 0.0405556 0.985387 0.5 0.44694 -0.750138
197 1 0.671575 0.812298 0.5 -0.347734 -0.0637332
198 1 0.805344 0.498556 0.5 0.210712 0.60755
199 1 0.977945 0.714661 0.5 0.398721 -0.00504297
200 1 0.850341 0.0156595 0.5 -0.0880176 -0.105467
201 1 0.0715793 0.0500292 0.5 -0.00795441 0.113231
202 1 0.00127547 0.672815 0.5 0.228265 0.267646
203 1 0.974591 0.618934 0.5 -0.418001 0.0500902
204 1 0.868263 0.0898332 0.5 0.178231 -0.280198
205 1 0.175326 0.850037 0.5 0.300905 -0.288326
206 1 0.22039 0.169808 0.5 0.263492 0.691859
207 1 0.0331765 0.203257 0.5 0.331611 0.681017
208 1 0.79092 0.983659 0.5 -0.578873 0.107751
209 1 0.62146 0.535381 0.5 -0.289205 0.300286
210 1 0.737776 0.469683 0.5 0.172556 -0.0254411
211 1 0.819632 0.816044 0.5 0.733842 0.381105
212 1 0.501174 0.140693 0.5 -0.286486 -0.492942
213 1 0.615404 0.138261 0.5 0.863118 0.201576
214 1 0.813552 0.178464 0.5 -0.614044 -0.766752
215 1 0.203366 0.993104 0.5 -0.344698 0.52987
216 1 0.917482 0.215164 0.5 0.396234 0.233913
217 1 0.923097 0.576987 0.5 0.240755 0.484995
218 1 0.0478808 0.918023 0.5 -0.0703772 -0.453947
219 1 0.738043 0.194916 0.5 0.794573 -0.226794
220 1 0.726415 0.15929 0.5 -0.330919 -0.481432
221 1 0.895025 0.885156 0.5 -0.331264 -0.558396
222 1 0.797043 0.91932 0.5 -0.464483 -0.650527
223 1 0.653121 0.182147 0.5 0 0
224 1 0.873359 0.952966 0.5 -0.446609 0.33142
225 1 0.737384 0.165272 0.5 -0.272377 -0.481013
226 1 0.601605 0.0426233 0.5 0 0
227 1 0.920001 0.904455 0.5 0.688222 -0.285173
228 1 0.632418 0.264303 0.5 -0.317666 -0.158092
229 1 0.190747 0.948548 0.5 -0.486779 0.225292
230 1 0.191656 0.884318 0.5 -0.546509 0.242259
231 1 0.840971 0.884896 0.5 0.0578866 -0.219909
232 1 0.944318 0.337373 0.5 0.0227225 -0.222521
233 1 0.993379 0.975138 0.5 0.380409 0.361844
234 1 0.370839 0.817345 0.5 -0.0954891 0.22632
235 1 0.100048 0.770448 0.5 0.488254 -0.265047
236 1 0.937072 0.309704 0.5 0.339213 -0.294791
237 1 0.742817 0.262677 0.5 -0.217906 0.375534
238 1 0.145264 0.977636 0.5 -0.664062 -0.242649
239 1 0.962882 0.387419 0.5 0.207378 -0.276584
240 1 0.733276 0.113343 0.5 0 0
241 1 0.88682 0.877872 0.5 -0.142011 -0.395151
242 1 0.688375 0.284569 0.5 0.325067 -0.0554427
243 1 0.951269 0.823718 0.5 -0.316501 -0.446912
244 1 0.948272 0.0585461 0.5 -0.11826 0.888856
245 1 0.11824 0.350907 0.5 0.433506 -0.161843
246 1 0.537682 0.175533 0.5 -0.342833 0.392055
247 1 0.155694 0.981971 0.5 -0.432401 0.330152
248 1 0.854595 0.0743558 0.5 0.798625 -0.42241
249 1 0.54194 0.994379 0.5 0.682424 -0.279109
250 1 0.950679 0.715657 0.5 -0.571788 0.161292
251 1 0.0163544 0.212583 0.5 0.547467 -0.287637
252 1 0.951559 0.343906 0.5 0.0652956 0.399099
253 1 0.598145 0.234589 0.5 0.357716 0.734426
254 1 0.895127 0.0697031 0.5 0.244041 0.357151
255 1 0.867026 0.869207 0.5 -0.176123 -0.350608
256 1 0.911842 0.60104 0.5 -0.280827 0.120523
257 1 0.124717 0.188288 0.5 0.601328 0.0874711
258 1 0.253994 0.0173363 0.5 0.730045 0.50419
259 1 0.930465 0.220758 0.5 0.453934 -0.112108
260 1 0.219848 0.867778 0.5 0.273876 -0.224829
261 1 0.193197 0.580871 0.5 0.410465 -0.551889
262 1 0.0427104 0.693157 0.5 -0.496604 -0.0990152
263 1 0.6004 0.63985 0.5 -0.0868524 0.567871
264 1 0.840015 0.265721 0.5 -0.66816 0.0800562
265 1 0.338794 0.039507 0.5 -0.495036 -0.249003
266 1 0.900386 0.85861 0.5 0.54766 -0.142348
267 1 0.941558 0.220159 0.5 0.929114 0.119182
268 1 0.80398 0.514525 0.5 0.450589 0.706706
269 1 0.422445 0.994473 0.5 0.360351 -0.687265
270 1 0.921913 0.855547 0.5 0.120869 -0.439464
271 1 0.900435 0.952037 0.5 0.0347991 0.509577
272 1 0.839367 0.0298459 0.5 -0.101203 0.172149
273 1 0.0173864 0.749976 0.5 0.349641 0.0807579
274 1 0.777956 0.989053 0.5 -0.0958204 0.124277
275 1 0.0466453 0.95475 0.5 0.241307 0.105096
276 1 0.822361 0.573857 0.5 0.225534 -0.669922
277 1 0.821653 0.873392 0.5 -0.516246 -0.0595305
278 1 0.970483 0.831608 0.5 0.030901 0.357843
279 1 0.782796 0.174045 0.5 -0.447473 -0.104481
280 1 0.15843 0.872461 0.5 0.718351 -0.223078
281 1 0.877997 0.411826 0.5 0.239124 0.330547
282 1 0.520226 0.908811 0.5 -0.299749 0.267988
283 1 0.290236 0.842779 0.5 -0.2565 -0.289657
284 1 0.23065 0.908475 0.5 -0.915203 -0.10878
285 1 0.0975516 0.324477 0.5 -0.398936 0.448967
286 1 0.919193 0.919382 0.5 -0.122216 0.473093
287 1 0.0536556 0.14802 0.5 0.869092 -0.0298055
288 1 0.751314 0.438565 0.5 0.359643 -0.43823
289 1 0.85886 0.174591 0.5 -0.178989 0.123925
290 1 0.740757 0.00749594 0.5 -0.826645 -0.356571
291 1 0.60029 0.188734 0.5 0.0799795 -0.880164
292 1 0.816007 0.00149281 0.5 -0.289524 0.739928
293 1 0.501416 0.748738 0.5 0.727975 -0.0206486
294 1 0.573315 0.954387 0.5 0.408053 -0.106264
295 1 0.237088 0.308018 0.5 0.0870051 -0.863199
296 1 0.679892 0.456163 0.5 0.554803 0.0284862
297 1 0.870289 0.418031 0.5 0.0614749 0.77732
298 1 0.460606 0.618448 0.5 0.37898 0.250501
299 1 0.857879 0.253843 0.5 -0.84414 0.336106
300 1 0.944461 0.40895 0.5 0.0365433 -0.14959
301 1 0.725785 0.432595 0.5 -0.544325 0.0995031
302 1 0.490189 0.3999 0.5 0.356464 0.563785
303 1 0.641135 0.614295 0.5 0.461395 0.709912
304 1 0.938627 0.494269 0.5 0.678999 0.345899
305 1 0.751695 0.107037 0.5 0.002361 0.138449
306 1 0.864535 0.21974 0.5 -0.452336 -0.301352
307 1 0.747469 0.51159 0.5 0.760912 -0.419266
308 1 0.94757 0.370235 0.5 -0.283398 0.468889
309 1 0.675207 0.346932 0.5 0.0370093 -0.380688
310 1 0.964156 0.554813 0.5 -0.497784 0.403411
311 1 0.989642 0.826461 0.5 -0.105972 0.0789752
312 1 0.697059 0.762104 0.5 -0.288711 -0.336221
313 1 0.0647427 0.202529 0.5 0.148757 -0.259086
314 1 0.626414 0.461784 0.5 0.368176 0.432141
315 1 0.0826494 0.317755 0.5 0.734625 -0.11636
316 1 0.297377 0.180952 0.5 0.452462 0.448087
317 1 0.539594 0.326731 0.5 -0.126115 -0.393302
318 1 0.971959 0.200823 0.5 0.376457 -0.7588
319 1 0.704845 0.0876941 0.5 -0.766406 -0.0258222
320 1 0.838987 0.113586 0.5 -0.704036 0.125824
321 1 0.0916296 0.280036 0.5 0.660315 -0.335626
322 1 0.538254 0.781701 0.5 0.500683 0.461887
323 1 0.718515 0.172092 0.5 0.423776 0.215606
324 1 0.94101 0.141959 0.5 0.109413 0.144758
325 1 0.749021 0.402276 0.5 -0.172282 0.780762
326 1 0.802769 0.251619 0.5 -0.131339 0.492953
327 1 0.652577 0.53057 0.5 0.0867821 0.00795448
328 1 0.423091 0.31011 0.5 0.507701 0.17078
329 1 0.767844 0.397015 0.5 -0.187716 0.533861
330 1 0.689254 0.385349 0.5 0.0194155 -0.655506
331 1 0.754021 0.705824 0.5 -0.511742 -0.105467
332 1 0.777616 0.340548 0.5 -0.726927 0.0222178
333 1 0.748905 0.13679 0.5 0.0951651 0.885197
334 1 0.32228 0.0947183 0.5 -0.288611 0.135712
335 1 0.636667 0.0959719 0.5 0.898357 0.34703
336 1 0.0794891 0.732297 0.5 0.325344 -0.0418317
337 1 0.672752 0.14705 0.5 -0.718994 -0.323951
338 1 0.924286 0.337176 0.5 -0.178495 0.851139
339 1 0.555153 0.586031 0.5 0.0879702 -0.84024
340 1 0.317788 0.328301 0.5 0.484245 0.433669
341 1 0.703992 0.330026 0.5 -0.358582 -0.0905026
342 1 0.123947 0.989636 0.5 0.345483 -0.582046
343 1 0.63496 0.622842 0.5 -0.10784 0.724768
344 1 0.4092 0.222622 0.5 -0.510727 0.15879
345 1 0.819378 0.0411439 0.5 0.929213 -0.0585104
346 1 0.8748 0.207609 0.5 -0.0597025 -0.650717
347 1 0.543458 0.153151 0.5 0.1621 -0.0713724
348 1 0.722867 0.320663 0.5 -0.285619 0.24518
349 1 0.541627 0.339511 0.5 -0.600096 0.13666
350 1 0.102663 0.251601 0.5 -0.262203 0.285291
351 1 0.905553 0.849702 0.5 0.347881 -0.0125009
352 1 0.63016 0.408697 0.5 -0.603871 0.245327
353 1 0.893697 0.807352 0.5 0.125236 -0.357916
354 1 0.000478653 0.299704 0.5 -0.256801 0.224519
355 1 0.491336 0.650317 0.5 -0.0758331 -0.636936
356 1 0.823903 0.468882 0.5 0.189576 -0.0032343
357 1 0.820445 0.225633 0.5 0.158029 -0.134156
358 1 0.970689 0.408319 0.5 -0.221064 0.363821
359 1 0.761865 0.288396 0.5 0.754473 0.18377
360 1 0.618919 0.58118 0.5 0.513067 -0.339924
361 1 0.531783 0.807878 0.5 0.146883 -0.674413
362 1 0.554496 0.567898 0.5 0.599046 0.0110192
363 1 0.901497 0.0600539 0.5 0.256531 0.849484
364 1 0.779666 0.968645 0.5 -0.111673 0.254217
365 1 0.794968 0.311427 0.5 -0.0629142 0.529008
366 1 0.135199 0.990321 0.5 0.0797719 -0.406601
367 1 0.33885 0.526699 0.5 -0.241204 0.866269
368 1 0.97921 0.102065 0.5 -0.835559 -0.229856
369 1 0.765804 0.241276 0.5 0.619465 -0.230827
370 1 0.783624 0.728761 0.5 0.346976 -0.066619
371 1 0.692763 0.179895 0.5 0.764549 -0.0715307
372 1 0.787631 0.317986 0.5 0.192724 0.411541
373 1 0.0387287 0.580992 0.5 0.196812 0.229558
374 1 0.176619 0.607166 0.5 0.0103891 0.400662
375 1 0.774472 0.0920486 0.5 0.333512 0.21196
376 1 0.0319978 0.0466578 0.5 -0.713437 0.00759467
377 1 0.416159 0.0872921 0.5 0.479548 -0.349401
378 1 0.698915 0.425295 0.5 -0.282199 0.0481935
379 1 0.781393 0.248492 0.5 0 0
380 1 0.601102 0.0714295 0.5 0.742094 -0.0816264
381 1 0.853842 0.316122 0.5 -0.555126 0.0071871
382 1 0.118114 0.196255 0.5 0.585241 0.211817
383 1 0.564664 0.644209 0.5 0 0
384 1 0.826697 0.553929 0.5 0.067905 -0.240989
385 1 0.595925 0.402839 0.5 0.484415 -0.526224
386 1 0.695244 0.315088 0.5 -0.257241 -0.135157
387 1 0.864119 0.0728544 0.5 0.505916 -0.601771
388 1 0.115321 0.571594 0.5 0.342354 -0.83468
389 1 0.27911 0.713195 0.5 0.115381 -0.582142
390 1 0.921694 0.466769 0.5 0.218244 -0.501876
391 1 0.80519 0.172231 0.5 -0.599394 -0.0834147
392 1 0.376748 0.679829 0.5 -0.15429 -0.0961006
393 1 0.276789 0.104768 0.5 -0.224419 0.404972
394 1 0.568924 0.743157 0.5 -0.458129 0.166847
395 1 0.361618 0.0763456 0.5 -0.0888115 -0.442835
396 1 0.944576 0.155313 0.5 -0.305481 -0.241068
397 1 0.655105 0.60099 0.5 -0.404255 -0.0401813
398 1 0.822499 0.6306 0.5 0.127532 0.740874
399 1 0.807889 0.793361 0.5 0.507874 0.457532
400 1 0.579038 0.5358 0.5 -0.477967 -0.212079
401 1 0.531187 0.235532 0.5 0.314672 0.596304
402 1 0.588567 0.83063 0.5 -0.637862 -0.285141
403 1 0.518422 0.704287 0.5 0.130768 0.27432
404 1 0.623993 0.619313 0.5 -0.395701 0.852154
405 1 0.76952 0.309692 0.5 0.14571 0.355978
406 1 0.701851 0.47195 0.5 -0.727166 -0.307601
407 1 0.888772 0.443752 0.5 0.500886 -0.29355
408 1 0.639083 0.403821 0.5 0.275371 0.0448979
409 1 0.62357 0.356343 0.5 -0.230216 0.0505214
410 1 0.354144 0.470205 0.5 0.0625524 0.385067
411 1 0.818599 0.834527 0.5 0.239877 0.100555
412 1 0.529776 0.225039 0.5 -0.185947 0.197793
413 1 0.65312 0.735653 0.5 -0.327524 -0.361707
414 1 0.814969 0.56615 0.5 -0.347024 -0.787055
415 1 0.591383 0.243967 0.5 0.552055 -0.00275598
416 1 0.65176 0.0392513 0.5 0.768892 0.352141
417 1 0.927713 0.622943 0.5 -0.361556 -0.056047
418 1 0.217001 0.751912 0.5 -0.796681 -0.445458
419 1 0.213093 0.959858 0.5 -0.547603 0.363732
420 1 0.205514 0.612986 0.5 0.274255 0.674258
421 1 0.764346 0.163897 0.5 -0.759306 0.2374
422 1 0.585818 0.515945 0.5 0.448118 0.322298
423 1 0.580278 0.453217 0.5 -0.289505 0.208848
424 1 0.610425 0.608059 0.5 -0.0286197 0.291114
425 1 0.26819 0.497635 0.5 -0.798945 -0.0524826
426 1 0.385303 0.737638 0.5 0.194781 0.1424
427 1 0.430216 0.222298 0.5 -0.0895303 -0.545458
428 1 0.562929 0.750585 0.5 -0.261129 0.371175
429 1 0.164286 0.202335 0.5 0.355511 0.0423741
430 1 0.779306 0.0437369 0.5 0.67731 0.356193
431 1 0.619964 0.157575 0.5 0.0585304 -0.346535
432 1 0.0552677 0.0189564 0.5 0.423144 -0.379776
433 1 0.916468 0.118995 0.5 0.714843 -0.288655
434 1 0.558475 0.119227 0.5 0.535051 -0.418025
435 1 0.724289 0.623775 0.5 0.193561 -0.190213
436 1 0.520952 0.753006 0.5 0.177997 -0.686951
437 1 0.914467 0.406812 0.5 -0.491522 -0.0571498
438 1 0.71618 0.742196 0.5 -0.122498 -0.368198
439 1 0.750084 0.066681 0.5 -0.225687 0.408163
440 1 0.438101 0.298296 0.5 -0.339002 -0.804074
441 1 0.605562 0.821604 0.5 -0.200903 -0.632184
442 1 0.671533 0.223085 0.5 -0.480426 0.176467
443 1 0.897899 0.21392 0.5 0.811396 0.282924
444 1 0.755257 0.482621 0.5 0.744025 0.455001
445 1 0.705121 0.275312 0.5 0.865736 0.211677
446 1 0.886554 0.0750207 0.5 -0.0770063 0.428848
447 1 0.352502 0.991853 0.5 -0.452134 0.181072
448 1 0.909338 0.807595 0.5 -0.0135023 -0.518533
449 1 0.734409 0.102105 0.5 -0.303053 -0.81258
450 1 0.488863 0.586969 0.5 -0.475073 0.058958
451 1 0.575268 0.221864 0.5 0.509445 0.517846
452 1 0.650541 0.473188 0.5 0.111744 -0.679181
453 1 0.667924 0.700541 0.5 -0.174594 0.356641
454 1 0.0243162 0.95678 0.5 0.288547 -0.449988
455 1 0.521396 0.428166 0.5 0.0255887 0.0516095
456 1 0.256692 0.937289 0.5 -0.457746 -0.125366
457 1 0.480177 0.21636 0.5 -0.312969 -0.204914
458 1 0.731174 0.337314 0.5 -0.138715 0.0787707
459 1 0.891473 0.309036 0.5 -0.0865937 -0.283044
460 1 0.518238 0.956201 0.5 -0.238891 0.064201
461 1 0.905072 0.252415 0.5 -0.0715705 0.417955
462 1 0.885856 0.0288285 0.5 -0.269873 -0.267322
463 1 0.673422 0.0870696 0.5 -0.60103 0.414197
464 1 0.253127 0.17952 0.5 -0.335896 0.0391702
465 1 0.871482 0.510121 0.5 -0.159636 -0.431655
466 1 0.942134 0.280061 0.5 0.60429 -0.277739
467 1 0.896639 0.469596 0.5 -0.141728 -0.488545
468 1 0.634537 0.330321 0.5 -0.355222 0.708953
469 1 0.576893 0.260765 0.5 0 0
470 1 0.918372 0.980965 0.5 0.298051 0.0994777
471 1 0.885465 0.250215 0.5 0.475615 0.361061
472 1 0.62199 0.890382 0.5 0.718215 -0.0355196
473 1 0.981277 0.145144 0.5 -0.0590797 -0.733057
474 1 0.991218 0.735699 0.5 0.119724 -0.234868
475 1 0.660838 0.334424 0.5 0.869063 -0.27011
476 1 0.934835 0.113474 0.5 0.394937 -0.430638
477 1 0.550025 0.412545 0.5 -0.305344 -0.267375
478 1 0.718413 0.405836 0.5 -0.265754 -0.718565
479 1 0.715785 0.515655 0.5 0.431353 -0.819556
480 1 0.692313 0.00808568 0.5 0.544205 -0.524517
481 1 0.0216347 0.375934 0.5 0.171483 0.764253
482 1 0.779726 0.3608 0.5 0.185165 0.595908
483 1 0.309019 0.0715113 0.5 -0.172897 0.0284232
484 1 0.690373 0.53278 0.5 0.185047 0.258715
485 1 0.680692 0.335601 0.5 0.420356 0.509738
486 1 0.667157 0.559031 0.5 -0.21953 -0.391913
487 1 0.598065 0.773348 0.5 0.567734 0.100588
488 1 0.858825 0.195633 0.5 0.410501 -0.278027
489 1 0.671232 0.822085 0.5 -0.0810753 -0.13936
490 1 0.699644 0.41557 0.5 -0.470351 0.239085
491 1 0.602409 0.119055 0.5 0.31254 -0.162303
492 1 0.510746 0.279346 0.5 0 0
493 1 0.403182 0.0995014 0.5 0.318756 -0.305957
494 1 0.535983 0.582296 0.5 -0.677111 -0.43613
495 1 0.832053 0.713662 0.5 0.222963 -0.272926
496 1 0.645909 0.0271336 0.5 -0.1004 0.447015
497 1 0.116072 0.0614205 0.5 0.321439 0.474369
498 1 0.553028 0.282512 0.5 0.171003 0.248948
499 1 0.660176 0.217682 0.5 -0.872499 0.39694
500 1 0.20742 0.158849 0.5 0.29608 0.722622
501 1 0.879021 0.857122 0.5 0.100799 -0.656417
502 1 0.776231 0.478425 0.5 0.390004 -0.484949
503 1 0.0960681 0.0990386 0.5 0.562475 -0.363859
504 1 0.946459 0.504916 0.5 -0.312433 -0.568127
505 1 0.412232 0.551163 0.5 -0.556666 -0.0569242
506 1 0.567469 0.520291 0.5 -0.517824 -0.219981
507 1 0.66261 0.37276 0.5 0.0375477 -0.618645
508 1 0.697591 0.171644 0.5 0.909707 0.0878493
509 1 0.481196 0.867152 0.5 -0.304333 -0.566965
510 1 0.715558 0.312277 0.5 0.100172 0.403383
511 1 0.713715 0.19819 0.5 0.226342 -0.416713
512 1 0.960468 0.72252 0.5 -0.677817 0.423684
513 1 0.313715 0.662027 0.5 -0.127028 0.150171
514 1 0.427878 0.678204 0.5 -0.559283 0.457248
515 1 0.785804 0.275507 0.5 -0.336196 0.627557
516 1 0.797047 0.110228 0.5 0.108778 0.209677
517 1 0.934397 0.340609 0.5 -0.438626 0.204862
518 1 0.419361 0.558868 0.5 -0.606752 -0.0241123
519 1 0.0633367 0.182803 0.5 -0.0986182 0.0758929
520 1 0.710518 0.357183 0.5 0.354219 -0.233794
521 1 0.706529 0.963935 0.5 0.246916 0.05455
522 1 0.266687 0.0809103 0.5 -0.293611 -0.231479
523 1 0.936921 0.968132 0.5 -0.636117 0.0358218
524 1 0.595354 0.547607 0.5 0 0
525 1 0.874526 0.426578 0.5 -0.0918697 0.344503
526 1 0.770578 0.665285 0.5 -0.266124 -0.392637
527 1 0.869739 0.0641711 0.5 0.0348677 -0.395324
528 1 0.827653 0.757321 0.5 0.243926 0.0601802
529 1 0.925648 0.842218 0.5 -0.143096 -0.439733
530 1 0.911296 0.313295 0.5 0.237244 -0.47621
531 1 0.664744 0.646404 0.5 -0.676855 -0.0299677
532 1 0.633012 0.506699 0.5 -0.324313 -0.615974
533 1 0.834948 0.375625 0.5 -0.0354557 0.143884
534 1 0.537809 0.263805 0.5 0.0974088 0.628968
535 1 0.0781573 0.358467 0.5 -0.319651 0.473026
536 1 0.795102 0.495455 0.5 -0.291585 0.760099
537 1 0.0757423 0.0319282 0.5 -0.391907 -0.590674
538 1 0.995562 0.102155 0.5 -0.797214 0.246105
539 1 0.580781 0.870141 0.5 -0.260533 0.048559
540 1 0.0565791 0.365698 0.5 0.205958 0.0692183
541 1 0.534138 0.4079 0.5 0.0310048 -0.767401
542 1 0.088056 0.0185656 0.5 0.208745 0.124999
543 1 0.402309 0.746739 0.5 0.362756 -0.33981
544 1 0.714723 0.326474 0.5 -0.715413 0.0483704
545 1 0.621037 0.406247 0.5 -0.0913869 -0.340412
546 1 0.865573 0.919819 0.5 -0.622968 0.47565
547 1 0.63637 0.340355 0.5 -0.225793 0.722042
548 1 0.97229 0.878859 0.5 0.0170621 0.627236
549 1 0.830596 0.262114 0.5 -0.0618522 0.461014
550 1 0.624655 0.592321 0.5 0.570487 0.148393
551 1 0.654221 0.324642 0.5 0.437531 0.140819
552 1 0.985868 0.214708 0.5 0.431141 -0.452551
553 1 0.00315112 0.0520023 0.5 0.0171938 0.0826291
554 1 0.622321 0.610091 0.5 0.178378 0.700739
555 1 0.89231 0.434877 0.5 0.0750913 0.0276418
556 1 0.955607 0.0507899 0.5 0.169679 0.362766
557 1 0.738316 0.0658055 0.5 -0.0610818 0.413772
558 1 0.61094 0.386909 0.5 -0.234558 -0.429571
559 1 0.364586 0.772984 0.5 0 0
560 1 0.405439 0.386196 0.5 -0.882695 -0.183305
561 1 0.760898 0.529385 0.5 0.670268 -0.617426
562 1 0.891641 0.424501 0.5 -0.0553213 0.37442
563 1 0.757794 0.426777 0.5 0.0843227 0.209583
564 1 0.666747 0.921089 0.5 0.070137 0.394052
565 1 0.646462 0.48228 0.5 0.766284 -0.346024
566 1 0.862106 0.398537 0.5 0.535391 0.342362
567 1 0.632152 0.742524 0.5 -0.0820616 -0.514192
568 1 0.396582 0.893582 0.5 -0.414696 0.219452
569 1 0.384123 0.16105 0.5 0.308172 -0.0683339
570 1 0.363807 0.558641 0.5 0.396899 0.601782
571 1 0.657097 0.481118 0.5 0.0116052 -0.65037
572 1 0.264749 0.370426 0.5 -0.427491 0.709945
573 1 0.914872 0.356237 0.5 -0.300991 0.00400063
574 1 0.947788 0.307869 0.5 0.331424 0.16906
575 1 0.603451 0.781646 0.5 0.239025 0.373652
576 1 0.902427 0.242786 0.5 0.422699 0.435142
577 1 0.631639 0.223228 0.5 0.0502752 -0.27843
578 1 0.874319 0.35024 0.5 0.642133 0.358873
579 1 0.492481 0.436273 0.5 0 0
580 1 0.503699 0.780662 0.5 0.445841 0.182312
581 1 0.454483 0.932962 0.5 0.130977 0.32226
582 1 0.702912 0.40155 0.5 0.262725 -0.52987
583 1 0.619824 0.290957 0.5 0.254627 -0.301966
584 1 0.855177 0.30523 0.5 -0.80489 0.162896
585 1 0.771922 0.435381 0.5 0.0932602 -0.115262
586 1 0.699872 0.211479 0.5 0.115284 -0.582575
587 1 0.577716 0.689723 0.5 -0.379096 -0.236526
588 1 0.46159 0.0828805 0.5 0.253991 -0.0292449
589 1 0.524608 0.73307 0.5 -0.125889 -0.410037
590 1 0.506732 0.198931 0.5 0.125986 -0.703616
591 1 0.440638 0.524622 0.5 0 0
592 1 0.679428 0.101557 0.5 0.4837 -0.210365
593 1 0.736389 0.302481 0.5 -0.185946 -0.417283
594 1 0.71519 0.753617 0.5 -0.64096 -0.546852
595 1 0.96191 0.977707 0.5 0.0906927 0.109971
596 1 0.142096 0.200908 0.5 0.42069 0.18581
597 1 0.767096 0.102466 0.5 0.218919 0.658169
598 1 0.405955 0.833906 0.5 0.190247 -0.209039
599 1 0.252196 0.559607 0.5 0.709764 -0.362038
600 1 0.559329 0.735029 0.5 0.339245 -0.827052
601 1 0.666209 0.325038 0.5 0.55356 0.510967
602 1 0.674536 0.486841 0.5 -0.212678 -0.563742
603 1 0.838816 0.874828 0.5 -0.452319 -0.337806
604 1 0.495323 0.703425 0.5 -0.320246 -0.269245
605 1 0.628713 0.998717 0.5 0.817175 -0.4156
606 1 0.118531 0.630534 0.5 0.0161084 0.0834057
607 1 0.779902 0.497548 0.5 0.20865 -0.632432
608 1 0.739197 0.616882 0.5 -0.065756 0.189134
609 1 0.293194 0.765807 0.5 0.910649 -0.153679
610 1 0.72862 0.741206 0.5 -0.0486283 -0.676446
611 1 0.303375 0.44141 0.5 0.421819 -0.308276
612 1 0.406322 0.778411 0.5 0.384754 0.0745587
613 1 0.583148 0.431078 0.5 0.0394716 -0.633277
614 1 0.96532 0.671195 0.5 -0.178082 -0.0786169
615 1 0.337397 0.803803 0.5 0.254441 0.617781
616 1 0.48847 0.59741 0.5 -0.309467 0.650727
617 1 0.551689 0.0183179 0.5 0.648684 0.242565
618 1 0.650369 0.00778823 0.5 -0.00421913 0.353026
619 1 0.570464 0.820844 0.5 -0.814162 0.194942
620 1 0.540563 0.299257 0.5 0.585742 0.469973
621 1 0.438739 0.644145 0.5 -0.471707 0.0524072
622 1 0.518275 0.866252 0.5 -0.331322 0.222956
623 1 0.509869 0.65542 0.5 -0.139934 0.076156
624 1 0.0042036 0.478947 0.5 -0.0617165 0.756612
625 1 0.350804 0.972057 0.5 -0.0333256 0.333283
626 1 0.797185 0.879935 0.5 0.222221 -0.0189687
627 1 0.609732 0.726229 0.5 0.0564223 0.606893
628 1 0.518263 0.725665 0.5 0.48854 -0.669494
629 1 0.00430444 0.468015 0.5 -0.0210191 0.71467
630 1 0.0385137 0.49714 0.5 -0.290131 0.518162
631 1 0.35072 0.119764 0.5 -0.463344 -0.442225
632 1 0.344228 0.625635 0.5 0.17664 -0.401744
633 1 0.505382 0.409632 0.5 0.238129 -0.268578
634 1 0.773134 0.900304 0.5 0.0460592 0.00587021
635 1 0.014461 0.710639 0.5 0.14831 -0.530362
636 1 0.21746 0.577175 0.5 -0.032501 -0.921392
637 1 0.671544 0.783719 0.5 0.206671 -0.500745