ITEM: TIMESTEP
0
ITEM: NUMBER OF ATOMS
9963
ITEM: BOX BOUNDS pp pp pp
-5.8359999999999999e+01 5.8359999999999999e+01
-5.8359999999999999e+01 5.8359999999999999e+01
-5.0000000000000000e-01 5.0000000000000000e-01
ITEM: ATOMS id type xs ys zs c_002[1] c_002[2]
1 1 0.153182 0.0964388 0.5 -0.462224 -0.284629
2 1 0.0756394 0.769863 0.5 -0.400638 -0.775123
3 1 0.0377073 0.126377 0.5 -0.766346 -0.264623
4 1 0.0402862 0.177276 0.5 0.663169 0.0273692
5 1 0.608321 0.305933 0.5 0.0912684 -0.803903
6 1 0.266702 0.358679 0.5 -0.364071 -0.234395
7 1 0.113824 0.257992 0.5 -0.075923 -0.659889
8 1 0.116453 0.0160842 0.5 0.317597 -0.668011
9 1 0.150771 0.107311 0.5 0.137895 -0.792166
10 1 0.152917 0.0353163 0.5 -0.380986 -0.582925
11 1 0.133735 0.95457 0.5 -0.337184 0.517042
12 1 0.226667 0.168207 0.5 0.15006 -0.0265678
13 1 0.190263 0.0482106 0.5 -0.698995 -0.620189
14 1 0.211807 0.0788581 0.5 0.413001 0.456335
15 1 0.00178845 0.0747985 0.5 -0.800629 0.10961
16 1 0.0596682 0.136741 0.5 0.381389 0.298617
17 1 0.0925826 0.92819 0.5 0.123317 0.0189507
18 1 0.0947412 0.829747 0.5 -0.731165 0.159207
19 1 0.0422226 0.899227 0.5 0.443434 0.335947
20 1 0.090765 0.734698 0.5 -0.801846 -0.56376
21 1 0.0488448 0.099212 0.5 -0.819501 0.0344229
22 1 0.255104 0.271151 0.5 0.273833 0.722592
23 1 0.090464 0.0110506 0.5 0.656397 -0.702203
24 1 0.203419 0.0189342 0.5 -0.300851 -0.0074779
25 1 0.0914337 0.175229 0.5 -0.66517 0.324698
26 1 0.155628 0.13423 0.5 -0.454438 -0.34566
27 1 0.0277329 0.942355 0.5 -0.148806 -0.726661
28 1 0.497383 0.256275 0.5 0.59122 -0.256243
29 1 0.179825 0.0540485 0.5 -0.278394 -0.263455
30 1 0.988316 0.98932 0.5 0.411517 -0.203292
31 1 0.342691 0.275689 0.5 0.845631 0.195832
32 1 0.177607 0.197061 0.5 0.545969 0.212924
33 1 0.242325 0.109315 0.5 0.25274 0.0468884
34 1 0.0551371 0.374831 0.5 0.612444 0.177328
35 1 0.253539 0.0545808 0.5 0.0860021 -0.619155
36 1 0.195776 0.287246 0.5 -0.64689 -0.575563
37 1 0.12512 0.130724 0.5 -0.319123 0.797831
38 1 0.200081 0.0285612 0.5 0.250304 0.00707151
39 1 0.149701 0.242821 0.5 0.276954 -0.891833
40 1 0.365225 0.164043 0.5 0.909648 -0.115349
41 1 0.254815 0.974403 0.5 0.331614 -0.00175722
42 1 0.185777 0.251323 0.5 -0.109024 -0.826699
43 1 0.143467 0.126067 0.5 0.5193 0.512596
44 1 0.00440612 0.946587 0.5 -0.0792384 0.23573
45 1 0.130069 0.275222 0.5 -0.300778 -0.882006
46 1 0.106986 0.053915 0.5 -0.227826 0.0126707
47 1 0.144869 0.150011 0.5 -0.647065 -0.206116
48 1 0.0256145 0.0172377 0.5 0.290732 -0.840451
49 1 0.179511 0.892464 0.5 0.944043 0.130763
50 1 0.872051 0.0843429 0.5 -0.760186 0.293694
51 1 0.396518 0.0992158 0.5 -0.794973 -0.260108
52 1 0.138801 0.201666 0.5 0.377287 0.309765
53 1 0.152906 0.0449275 0.5 -0.31383 -0.718247
54 1 0.106223 0.905224 0.5 -0.670269 0.220551
55 1 0.303048 0.262664 0.5 -0.656282 0.160503
56 1 0.281866 0.392477 0.5 -0.87697 -0.435893
57 1 0.138647 0.872631 0.5 -0.624356 -0.490491
58 1 0.0348648 0.739721 0.5 -0.169622 -0.0198532
59 1 0.0923637 0.0284241 0.5 0.733788 -0.581099
60 1 0.180654 0.389807 0.5 -0.45721 -0.735147
61 1 0.191478 0.0786963 0.5 -0.256087 0.338695
62 1 0.266298 0.209579 0.5 -0.841723 -0.0385463
63 1 0.20412 0.24513 0.5 0.212439 -0.886576
64 1 0.0361969 0.0623547 0.5 -0.663955 -0.225011
65 1 0.152355 0.985068 0.5 -0.107466 -0.793977
66 1 0.458343 0.198167 0.5 -0.0221497 -0.636588
67 1 0.0366654 0.0164373 0.5 0.228227 -0.791788
68 1 0.0630417 0.0579901 0.5 -0.241695 -0.399143
69 1 0.198221 0.0649787 0.5 -0.795651 0.0809119
70 1 0.337319 0.265975 0.5 0.522912 0.407398
71 1 0.109585 0.144498 0.5 -0.458242 0.327514
72 1 0.129916 0.113823 0.5 -0.0663907 0.910849
73 1 0.115439 0.160125 0.5 -0.183177 0.57212
74 1 0.084254 0.863588 0.5 -0.706698 -0.119246
75 1 0.05232 0.14409 0.5 -0.122975 0.109052
76 1 0.296175 0.246178 0.5 -0.634155 -0.225153
77 1 0.161809 0.92117 0.5 0.829418 -0.113761
78 1 0.163129 0.845774 0.5 0.0770985 -0.434611
79 1 0.0107319 0.143079 0.5 -0.669339 0.136517
80 1 0.246161 0.177409 0.5 -0.69479 -0.353872
81 1 0.000716821 0.137764 0.5 -0.297347 0.256111
82 1 0.214128 0.308173 0.5 -0.659996 -0.50244
83 1 0.218612 0.37567 0.5 -0.0763868 -0.865252
84 1 0.246551 0.0451922 0.5 0.556075 -0.686923
85 1 0.151896 0.0638758 0.5 -0.490533 0.388212
86 1 0.156543 0.003755 0.5 -0.149319 -0.906226
87 1 0.0950189 0.76191 0.5 -0.646941 -0.522191
88 1 0.974646 0.108751 0.5 -0.248071 -0.213997
89 1 0.113809 0.118363 0.5 -0.266069 0.733951
90 1 0.980201 0.156889 0.5 0.0474755 -0.740482
91 1 0.221767 0.968226 0.5 -0.41361 -0.0413311
92 1 0.0110456 0.0906152 0.5 -0.904541 0.00342264
93 1 0.322059 0.0602089 0.5 0.116598 -0.677736
94 1 0.199054 0.144501 0.5 0.758733 0.206805
95 1 0.10593 0.0169816 0.5 0.610819 -0.648182
96 1 0.10394 0.308774 0.5 0.154668 -0.326233
97 1 0.0298283 0.17768 0.5 0.544266 0.0638879
98 1 0.256951 0.923316 0.5 0.0125096 0.922999
99 1 0.333274 0.254424 0.5 -0.56036 0.394117
100 1 0.12706 0.325814 0.5 -0.0521621 -0.449346
101 1 0.0368873 0.0421976 0.5 -0.100604 -0.0322767
102 1 0.00727344 0.79107 0.5 -0.716108 -0.105715
103 1 0.275369 0.215567 0.5 -0.739753 0.317459
104 1 0.119102 0.373949 0.5 0.450744 -0.0551108
105 1 0.098423 0.989216 0.5 0.258693 -0.73303
106 1 0.148883 0.117997 0.5 0.0721205 -0.451294
107 1 0.248165 0.218672 0.5 -0.661483 0.00674419
108 1 0.383779 0.27974 0.5 0.232815 -0.766787
109 1 0.472183 0.183936 0.5 0.426244 -0.843587
110 1 0.954828 0.376813 0.5 -0.431914 0.126555
111 1 0.976669 0.986069 0.5 -0.0330609 0.428159
112 1 0.0962744 0.12082 0.5 -0.236903 0.197877
113 1 0.041196 0.105424 0.5 -0.702797 0.089207
114 1 0.118978 0.100551 0.5 -0.434718 0.151644
115 1 0.00241675 0.10575 0.5 -0.565647 -0.185627
116 1 0.129992 0.983935 0.5 -0.199932 0.106788
117 1 0.136803 0.255554 0.5 0.149811 -0.708864
118 1 0.317206 0.215454 0.5 -0.592055 0.0818956
119 1 0.122537 0.951249 0.5 0.0991163 0.613184
120 1 0.398119 0.351493 0.5 -0.294281 0.546874
121 1 0.0887974 0.202471 0.5 0.0114608 -0.177515
122 1 0.184884 0.321141 0.5 -0.538932 -0.72532
123 1 0.383031 0.24649 0.5 -0.311937 -0.668941
124 1 0.170129 0.277311 0.5 -0.361876 -0.583985
125 1 0.132514 0.832794 0.5 -0.159693 -0.328589
126 1 0.12083 0.90638 0.5 0.803853 -0.347224
127 1 0.165535 0.863376 0.5 0.643708 -0.0551087
128 1 0.135029 0.814008 0.5 -0.426186 -0.412971
129 1 0.53973 0.254515 0.5 0.163105 -0.252885
130 1 0.960482 0.257319 0.5 0.276918 -0.683084
131 1 0.193422 0.327056 0.5 -0.619998 -0.659703
132 1 0.181137 0.827377 0.5 -0.664479 -0.382128
133 1 0.0788833 0.966334 0.5 0.371199 -0.870153
134 1 0.128925 0.94338 0.5 0.475189 -0.0291939
135 1 0.20147 0.25495 0.5 -0.065963 -0.842486
136 1 0.075528 0.858906 0.5 -0.402907 0.683269
137 1 0.0879553 0.582828 0.5 0.124791 0.858834
138 1 0.126371 0.186659 0.5 -0.795372 -0.0252715
139 1 0.230953 0.0206357 0.5 -0.910378 0.203265
140 1 0.108645 0.166982 0.5 -0.37617 0.165743
141 1 0.267237 0.370703 0.5 -0.262984 -0.424718
142 1 0.954277 0.0758486 0.5 -0.857908 -0.172661
143 1 0.959854 0.229201 0.5 0.343693 -0.719883
144 1 0.276914 0.225891 0.5 -0.480643 0.0435191
145 1 0.0208723 0.0373205 0.5 0.0823198 -0.851729
146 1 0.280581 0.136481 0.5 0.180655 0.818738
147 1 0.215293 0.169214 0.5 -0.0696937 -0.0929738
148 1 0.189514 0.230854 0.5 0.0470754 -0.701213
149 1 0.262138 0.31912 0.5 0.640585 0.60264
150 1 0.0645809 0.0675975 0.5 0.0419558 0.602865
151 1 0.230846 0.934326 0.5 -0.0555236 0.34491
152 1 0.189452 0.059045 0.5 -0.928333 -0.150653
153 1 0.135479 0.17948 0.5 -0.617948 0.226934
154 1 0.22724 0.0412681 0.5 -0.23982 -0.705525
155 1 0.0583644 0.0421669 0.5 0.446228 -0.786614
156 1 0.263361 0.264094 0.5 0.187514 0.755664
157 1 0.159096 0.994228 0.5 -0.156805 -0.815941
158 1 0.275733 0.00858395 0.5 -0.146809 0.545838
159 1 0.436732 0.226353 0.5 0.614077 -0.56654
160 1 0.922491 0.992239 0.5 0.756153 -0.514917
161 1 0.0643518 0.715396 0.5 -0.666795 -0.596034
162 1 0.0662435 0.939002 0.5 -0.111793 -0.358335
163 1 0.169194 0.121157 0.5 -0.0771638 0.386572
164 1 0.870739 0.26438 0.5 0.761433 -0.391544
165 1 0.211168 0.972739 0.5 -0.120775 -0.32135
166 1 0.0120008 0.896439 0.5 -0.495668 -0.228262
167 1 0.15244 0.0856825 0.5 -0.822647 -0.347144
168 1 0.112402 0.996613 0.5 0.325035 -0.157745
169 1 0.0790768 0.938477 0.5 0.831599 -0.492159
170 1 0.216444 0.887303 0.5 0.452281 -0.0737202
171 1 0.106364 0.91495 0.5 0.342396 0.00325074
172 1 0.0683557 0.112514 0.5 -0.598313 -0.278555
173 1 0.0845829 0.946642 0.5 0.329052 -0.793787
174 1 0.331729 0.0587426 0.5 0.407662 -0.472653
175 1 0.208043 0.236232 0.5 0.5787 -0.348729
176 1 0.0530641 0.237046 0.5 0.0613848 -0.559108
177 1 0.9037 0.300504 0.5 -0.871308 0.286067
178 1 0.188619 0.144488 0.5 0.201557 0.524454
179 1 0.275487 0.193988 0.5 -0.833163 -0.121758
180 1 0.392001 0.228093 0.5 0.352865 -0.551921
181 1 0.0816199 0.131073 0.5 0.418301 -0.49628
182 1 0.105409 0.942992 0.5 0.707565 -0.254406
183 1 0.119412 0.788787 0.5 -0.382232 -0.354252
184 1 0.156585 0.911169 0.5 0.77385 0.385443
185 1 0.0787649 0.201866 0.5 0.646887 -0.257124
186 1 0.814456 0.290598 0.5 -0.625505 0.204104
187 1 0.202024 0.999004 0.5 -0.222262 -0.0765349
188 1 0.201353 0.00904179 0.5 -0.673473 0.449458
189 1 0.144656 0.978337 0.5 -0.509567 -0.674769
190 1 0.0772677 0.0970068 0.5 0.0829627 -0.395139
191 1 0.0701604 0.23205 0.5 -0.272273 0.19106
192 1 0.305537 0.251694 0.5 -0.822649 -0.162657
193 1 0.178525 0.103709 0.5 -0.460112 0.73756
194 1 0.419986 0.25031 0.5 0.278813 -0.819083
195 1 0.298518 0.290227 0.5 -0.331384 -0.130034
196 1 0.07753 0.252261 0.5 -0.0988803 -0.876043
197 1 0.093315 0.713498 0.5 -0.0816832 -0.848652
198 1 0.197883 0.172367 0.5 -0.35773 0.814491
199 1 0.244184 0.974756 0.5 0.814796 -0.161502
200 1 0.208802 0.116261 0.5 0.670226 0.42671
201 1 0.0275267 0.0465893 0.5 -0.415812 -0.341628
202 1 0.200726 0.0749753 0.5 -0.528846 0.422275
203 1 0.0902418 0.22826 0.5 0.0546021 -0.597885
204 1 0.114499 0.063963 0.5 -0.560458 -0.285017
205 1 0.0348412 0.920721 0.5 0.727526 -0.408539
206 1 0.217136 0.138 0.5 0.395556 0.434898
207 1 0.101046 0.238063 0.5 0.209964 0.606051
208 1 0.179722 0.909136 0.5 0.787499 -0.0344816
209 1 0.953942 0.992247 0.5 0.0861268 -0.0651916
210 1 0.189762 0.384858 0.5 -0.675677 -0.674696
211 1 0.21785 0.0665726 0.5 -0.42985 0.332784
212 1 0.324041 0.228429 0.5 -0.560424 -0.118101
213 1 0.987493 0.228082 0.5 -0.188595 -0.858321
214 1 0.943798 0.250082 0.5 0.63474 -0.651684
215 1 0.0883148 0.150436 0.5 0.364704 -0.311802
216 1 0.0552409 0.919148 0.5 0.34434 -0.182922
217 1 0.0791777 0.140844 0.5 -0.016284 -0.963935
218 1 0.126161 0.0491011 0.5 0 0
219 1 0.0737647 0.272015 0.5 -0.0364779 -0.837611
220 1 0.0748293 0.881489 0.5 0.0044066 -0.152208
221 1 0.141251 0.0366609 0.5 -0.0189967 -0.455288
222 1 0.0535278 0.276254 0.5 0.190548 -0.370259
223 1 0.253486 0.234667 0.5 -0.0347981 0.0536029
224 1 0.0491893 0.156297 0.5 0.0572444 -0.741296
225 1 0.179117 0.947823 0.5 -0.824444 -0.506066
226 1 0.133523 0.237017 0.5 0.387322 -0.32644
227 1 0.928331 0.0174807 0.5 0.0761315 -0.42419
228 1 0.0248615 0.84375 0.5 -0.00912391 0.438841
229 1 0.212152 0.00136206 0.5 -0.322212 0.162835
230 1 0.20725 0.175502 0.5 -0.424106 0.828273
231 1 0.0930098 0.111733 0.5 0.545609 -0.0500849
232 1 0.226332 0.138726 0.5 0.534384 0.00218563
233 1 0.190439 0.179128 0.5 -0.542617 0.502507
234 1 0.263219 0.144363 0.5 0.350755 -0.235056
235 1 0.282115 0.064547 0.5 -0.602052 0.0196797
236 1 0.295074 0.302003 0.5 0.458222 -0.0156487
237 1 0.274155 0.237688 0.5 -0.29642 0.392513
238 1 0.16557 0.139092 0.5 0.0566166 0.611882
239 1 0.116097 0.888557 0.5 -0.335906 -0.410026
240 1 0.0447377 0.0670667 0.5 -0.710213 0.196486
241 1 0.153487 0.400604 0.5 0.854422 0.159498
242 1 0.217107 0.942359 0.5 0.484328 -0.000929665
243 1 0.192366 0.126381 0.5 0.789139 0.277926
244 1 0.24674 0.251575 0.5 -0.442908 0.601914
245 1 0.14285 0.0604093 0.5 -0.844527 0.138573
246 1 0.198427 0.115699 0.5 0.757728 -0.121271
247 1 0.0235109 0.729755 0.5 -0.0523422 0.264487
248 1 0.898313 0.277845 0.5 0.397685 -0.130551
249 1 0.0472608 0.0773259 0.5 -0.504028 0.479103
250 1 0.145368 0.889388 0.5 -0.743032 -0.106616
251 1 0.156192 0.865094 0.5 -0.293527 -0.625064
252 1 0.105938 0.157728 0.5 0.4768 -0.0527182
253 1 0.163782 0.902423 0.5 0.619945 0.0609474
254 1 0.189411 0.069049 0.5 -0.765175 0.229741
255 1 0.0397522 0.0946099 0.5 -0.464383 0.784073
256 1 0.333137 0.244974 0.5 -0.647312 0.0342262
257 1 0.367659 0.212536 0.5 0.866872 0.0485361
258 1 0.170283 0.186588 0.5 0.00859074 -0.120427
259 1 0.990745 0.0708411 0.5 0.124773 -0.237129
260 1 0.0310716 0.748974 0.5 -0.250174 -0.629981
261 1 0.103792 0.845875 0.5 -0.726056 -0.598065
262 1 0.418632 0.278763 0.5 -0.320619 -0.00593811
263 1 0.150343 0.054769 0.5 -0.377427 -0.221533
264 1 0.122901 0.848749 0.5 -0.431332 -0.862363
265 1 0.144688 0.0273858 0.5 -0.192651 -0.764797
266 1 0.0491152 0.349281 0.5 0.188124 -0.0342128
267 1 0.142638 0.16395 0.5 -0.263541 0.312483
268 1 0.196949 0.162382 0.5 0.129439 0.637277
269 1 0.329139 0.156398 0.5 0.487157 0.213852
270 1 0.0615708 0.00626249 0.5 0.286861 -0.403311
271 1 0.188884 0.280908 0.5 -0.446629 -0.800226
272 1 0.0695139 0.040046 0.5 0.524572 -0.764542
273 1 0.0386595 0.908499 0.5 0.599201 -0.274884
274 1 0.105603 0.968997 0.5 0.38019 -0.872717
275 1 0.0667257 0.126249 0.5 0.280066 -0.43726
276 1 0.17739 0.167063 0.5 0.596593 0.448003
277 1 0.994182 0.257955 0.5 0.0454876 -0.788025
278 1 0.204558 0.152884 0.5 0.686311 0.161073
279 1 0.992549 0.181254 0.5 -0.19462 -0.945051
280 1 0.112873 0.851438 0.5 -0.572146 -0.69673
281 1 0.0595625 0.907211 0.5 -0.0650558 -0.926266
282 1 0.0501531 0.134621 0.5 -0.0518188 0.418439
283 1 0.0281066 0.29306 0.5 -0.247289 -0.542991
284 1 0.107231 0.196482 0.5 -0.809999 -0.269005
285 1 0.920302 0.0464539 0.5 0.0675636 0.546903
286 1 0.0371576 0.847493 0.5 -0.541939 0.434408
287 1 0.0930107 0.0707826 0.5 0.63835 -0.668404
288 1 0.215115 0.22818 0.5 0.672671 -0.219032
289 1 0.118167 0.148186 0.5 -0.657509 0.31185
290 1 0.143477 0.0702983 0.5 -0.68457 0.614625
291 1 0.0958677 0.246485 0.5 0.174884 0.105759
292 1 0.368937 0.12388 0.5 -0.33706 0.551886
293 1 0.0572738 0.873423 0.5 -0.253148 0.195403
294 1 0.0991895 0.140294 0.5 -0.0625908 0.787469
295 1 0.362832 0.220959 0.5 0.709178 -0.356844
296 1 0.145673 0.194944 0.5 -0.0377501 0.352874
297 1 0.222394 0.916484 0.5 0.675829 0.292088
298 1 0.0500991 0.111806 0.5 -0.789956 -0.00914945
299 1 0.215327 0.0563804 0.5 -0.715631 -0.049059
300 1 0.230876 0.97217 0.5 -0.384729 0.610822
301 1 0.93694 0.175857 0.5 -0.0485441 -0.856694
302 1 0.139155 0.940006 0.5 0.4404 -0.0911067
303 1 0.990106 0.0195315 0.5 -0.0521441 -0.834954
304 1 0.0787008 0.800477 0.5 0.0474532 -0.32109
305 1 0.182486 0.0421703 0.5 -0.624686 -0.0913354
306 1 0.0395815 0.223323 0.5 0.128343 -0.0171886
307 1 0.255603 0.110047 0.5 0.27594 0.646175
308 1 0.188136 0.241071 0.5 -0.341169 -0.871636
309 1 0.301602 0.204659 0.5 -0.206953 -0.534466
310 1 0.136218 0.964412 0.5 -0.649282 0.460818
311 1 0.221914 0.9524 0.5 0.837052 0.0105769
312 1 0.186988 0.290822 0.5 -0.380854 -0.879064
313 1 0.29386 0.174669 0.5 0.285043 0.62233
314 1 0.0502877 0.910665 0.5 0.407945 -0.196435
315 1 0.0225079 0.670226 0.5 0.643012 0.198581
316 1 0.32056 0.717929 0.5 0.189101 0.467558
317 1 0.0460889 0.435649 0.5 0.0352688 0.657583
318 1 0.11507 0.213116 0.5 -0.575208 -0.688974
319 1 0.0257525 0.303228 0.5 -0.642903 -0.545228
320 1 0.139772 0.310475 0.5 0.180983 -0.918355
321 1 0.0402967 0.502748 0.5 -0.570344 0.615105
322 1 0.207526 0.506766 0.5 -0.505323 -0.274589
323 1 0.197781 0.277554 0.5 -0.612262 -0.376374
324 1 0.815119 0.380264 0.5 -0.223287 0.135655
325 1 0.203392 0.445901 0.5 -0.366992 -0.0818121
326 1 0.315242 0.395077 0.5 0.403172 0.0678859
327 1 0.163068 0.080426 0.5 -0.558913 -0.744272
328 1 0.979545 0.251009 0.5 0.632718 -0.229161
329 1 0.0702711 0.244116 0.5 -0.329634 -0.693254
330 1 0.256091 0.628867 0.5 -0.89997 -0.184769
331 1 0.198843 0.381361 0.5 -0.428831 -0.652864
332 1 0.176957 0.446741 0.5 -0.438216 0.0162398
333 1 0.00391842 0.331599 0.5 -0.766313 -0.414811
334 1 0.0387113 0.288122 0.5 -0.40313 -0.722738
335 1 0.180183 0.273739 0.5 -0.570455 -0.753012
336 1 0.0307977 0.392562 0.5 0.461064 0.28809
337 1 0.313664 0.533079 0.5 0.189908 -0.439805
338 1 0.102626 0.382367 0.5 0.740236 -0.591216
339 1 0.309137 0.697414 0.5 0.0381965 0.522622
340 1 0.152644 0.16716 0.5 -0.589842 0.306687
341 1 0.15331 0.218315 0.5 -0.425244 0.152127
342 1 0.995593 0.326792 0.5 -0.886889 -0.371433
343 1 0.167464 0.353142 0.5 0.267553 -0.907449
344 1 0.104438 0.516956 0.5 0.0999592 0.357135
345 1 0.0586489 0.460563 0.5 -0.642272 0.107641
346 1 0.064307 0.273761 0.5 0.0393006 -0.798897
347 1 0.123106 0.362551 0.5 0.326292 -0.832093
348 1 0.407698 0.367159 0.5 -0.545914 0.644911
349 1 0.961844 0.0822276 0.5 -0.423003 0.263801
350 1 0.906317 0.476316 0.5 0.58056 -0.637447
351 1 0.0401721 0.363028 0.5 -0.463502 0.5353
352 1 0.0447634 0.392629 0.5 0.712617 0.044631
353 1 0.127218 0.200487 0.5 0.394141 0.0227205
354 1 0.993207 0.604732 0.5 0.317302 0.79443
355 1 0.0447704 0.335136 0.5 -0.243077 0.0158254
356 1 0.141164 0.429686 0.5 0.859898 0.145802
357 1 0.0660021 0.299937 0.5 -0.0199324 -0.900204
358 1 0.125758 0.219339 0.5 -0.0720359 0.412342
359 1 0.0146562 0.269658 0.5 -0.767374 0.133019
360 1 0.319632 0.575621 0.5 -0.832855 -0.245963
361 1 0.923354 0.15973 0.5 0.0693705 -0.764452
362 1 0.0170105 0.193958 0.5 0.176819 -0.944292
363 1 0.0133302 0.329083 0.5 -0.732065 -0.349927
364 1 0.160238 0.225063 0.5 0.299004 -0.352512
365 1 0.0544257 0.394121 0.5 0.659101 -0.401365
366 1 0.997192 0.31605 0.5 -0.737731 -0.522669
367 1 0.150587 0.497809 0.5 0.224952 -0.601164
368 1 0.0547452 0.266468 0.5 -0.097343 -0.558086
369 1 0.117374 0.455687 0.5 0.972465 0.12904
370 1 0.0596374 0.471166 0.5 -0.56103 0.532732
371 1 0.183889 0.331317 0.5 -0.0481543 -0.768292
372 1 0.15889 0.250843 0.5 0.0272386 -0.665398
373 1 0.122454 0.465564 0.5 0.823983 0.299754
374 1 0.0424632 0.475373 0.5 -0.20491 0.930436
375 1 0.148805 0.373769 0.5 0.907217 -0.319006
376 1 0.136482 0.221476 0.5 -0.0960154 0.740132
377 1 0.329381 0.442742 0.5 -0.562809 0.240693
378 1 0.11232 0.381206 0.5 0.630235 -0.00630731
379 1 0.399241 0.36269 0.5 -0.451045 0.658023
380 1 0.401475 0.511577 0.5 -0.804489 -0.505819
381 1 0.0989515 0.41063 0.5 0.721844 0.21766
382 1 0.068509 0.327622 0.5 0.48801 -0.597196
383 1 0.0286127 0.415985 0.5 0.114074 0.780613
384 1 0.0985021 0.480932 0.5 0.38348 0.65179
385 1 0.160633 0.344814 0.5 0.444974 -0.764415
386 1 0.847774 0.220837 0.5 0.515521 -0.741363
387 1 0.250519 0.657395 0.5 0.0256723 -0.18186
388 1 0.138928 0.374229 0.5 0.531757 0.337886
389 1 0.0819116 0.158698 0.5 0.136703 0.0630747
390 1 0.215173 0.40553 0.5 -0.490414 -0.124498
391 1 0.777988 0.645321 0.5 -0.37444 -0.0462592
392 1 0.181208 0.176133 0.5 0.248713 0.209075
393 1 0.112984 0.464084 0.5 0.751914 0.384808
394 1 0.307821 0.41326 0.5 -0.404996 -0.47446
395 1 0.187217 0.496614 0.5 -0.39352 -0.623905
396 1 0.0517536 0.198743 0.5 -0.169962 -0.481674
397 1 0.997037 0.541084 0.5 0.118499 0.227197
398 1 0.0909042 0.186005 0.5 -0.22444 0.426501
399 1 0.192285 0.0343446 0.5 -0.300024 0.343019
400 1 0.0685043 0.440448 0.5 0.536805 0.250041
401 1 0.258489 0.363943 0.5 -0.385644 -0.61062
402 1 0.0998744 0.34623 0.5 0.870759 -0.180303
403 1 0.390691 0.432634 0.5 -0.413413 0.205547
404 1 0.00369681 0.178659 0.5 0.252185 -0.868815
405 1 0.255873 0.617529 0.5 -0.931778 -0.0227385
406 1 0.225078 0.478646 0.5 -0.60364 -0.0775079
407 1 0.8293 0.508466 0.5 0.208919 0.379332
408 1 0.174869 0.294519 0.5 -0.207938 -0.736796
409 1 0.978486 0.282673 0.5 0.33443 -0.760918
410 1 0.0951324 0.337843 0.5 0.408471 -0.273599
411 1 0.928254 0.367674 0.5 -0.510446 -0.0725009
412 1 0.206845 0.351199 0.5 -0.277808 -0.827259
413 1 0.0466098 0.296233 0.5 -0.286791 -0.82233
414 1 0.0483323 0.446149 0.5 -0.386353 0.792307
415 1 0.166663 0.312644 0.5 0.203848 -0.335086
416 1 0.0375649 0.214177 0.5 0.0800655 0.663431
417 1 0.995234 0.2874 0.5 -0.214552 -0.737298
418 1 0.0723891 0.35762 0.5 0.637999 -0.184478
419 1 0.281454 0.493128 0.5 -0.15943 -0.428742
420 1 0.98651 0.658323 0.5 0.799905 0.556879
421 1 0.264514 0.328979 0.5 0.0868287 0.525122
422 1 0.229396 0.385932 0.5 -0.0852479 -0.295856
423 1 0.209542 0.341645 0.5 -0.222605 -0.778391
424 1 0.184788 0.528007 0.5 -0.766355 -0.593327
425 1 0.0189902 0.378454 0.5 -0.719872 -0.142868
426 1 0.0113566 0.524591 0.5 0.19447 0.45188
427 1 0.133808 0.483616 0.5 0.266545 0.398941
428 1 0.992066 0.568123 0.5 0.464673 0.853642
429 1 0.122927 0.305379 0.5 -0.0672551 -0.853373
430 1 0.0570981 0.52694 0.5 -0.0653684 0.881528
431 1 0.021113 0.254902 0.5 -0.287525 0.134158
432 1 0.929081 0.42375 0.5 -0.0108111 -0.853972
433 1 0.213082 0.253537 0.5 -0.0234169 -0.702242
434 1 0.201468 0.456315 0.5 0.210388 -0.794796
435 1 0.106815 0.328264 0.5 0.187412 -0.742007
436 1 0.0708052 0.420443 0.5 0.646035 0.433539
437 1 0.304781 0.667139 0.5 -0.510144 0.71368
438 1 0.258417 0.255196 0.5 0.21785 0.627872
439 1 0.105882 0.124019 0.5 -0.708149 0.457079
440 1 0.184383 0.359807 0.5 0.151471 -0.355706
441 1 0.968057 0.560797 0.5 0.4993 -0.211209
442 1 0.797633 0.479603 0.5 -0.257066 0.222579
443 1 0.102533 0.400953 0.5 0.807281 0.0784229
444 1 0.973944 0.0985122 0.5 -0.641286 -0.259491
445 1 0.217019 0.5025 0.5 -0.75803 -0.324162
446 1 0.0683111 0.47489 0.5 0.219959 0.355975
447 1 0.0938214 0.219595 0.5 0.479728 -0.778313
448 1 0.242999 0.420559 0.5 -0.650873 -0.587185
449 1 0.27498 0.522556 0.5 -0.741039 -0.325115
450 1 0.0575404 0.500635 0.5 -0.195303 0.954722
451 1 0.814631 0.393683 0.5 -0.710783 0.120363
452 1 0.109599 0.411908 0.5 0.796715 -0.0986766
453 1 0.144563 0.214715 0.5 -0.275418 0.394794
454 1 0.00850702 0.168475 0.5 -0.186508 -0.143533
455 1 0.0335588 0.204799 0.5 0.221928 0.150295
456 1 0.810916 0.302819 0.5 -0.35255 0.289865
457 1 0.145592 0.748362 0.5 -0.750369 0.144805
458 1 0.985902 0.239076 0.5 -0.059593 -0.423436
459 1 0.139151 0.407986 0.5 0.75853 -0.204813
460 1 0.0977996 0.280534 0.5 -0.180421 -0.137864
461 1 0.0961506 0.47119 0.5 0.355151 0.810855
462 1 0.186822 0.441716 0.5 -0.455237 -0.790334
463 1 0.089186 0.319483 0.5 0.0277276 -0.416228
464 1 0.0705236 0.400448 0.5 0.615628 -0.0703571
465 1 0.0261131 0.210531 0.5 0.0201159 0.475684
466 1 0.296311 0.415309 0.5 -0.247676 -0.835523
467 1 0.945956 0.544384 0.5 0.526742 -0.448696
468 1 0.0241646 0.201145 0.5 -0.219655 -0.281762
469 1 0.225649 0.228068 0.5 0.295194 -0.613652
470 1 0.11652 0.190944 0.5 -0.846354 -0.293871
471 1 0.161527 0.427119 0.5 0.182675 -0.922894
472 1 0.13227 0.344679 0.5 -0.00945959 -0.103043
473 1 0.203553 0.106819 0.5 0.916285 -0.0998492
474 1 0.176935 0.521507 0.5 -0.737877 -0.609586
475 1 0.165233 0.547714 0.5 -0.0538139 -0.855475
476 1 0.00910151 0.348447 0.5 0.452841 -0.460504
477 1 0.135285 0.334779 0.5 -0.0204367 -0.16218
478 1 0.127827 0.39073 0.5 0.70983 -0.601839
479 1 0.939358 0.230292 0.5 0.333816 -0.669768
480 1 0.279585 0.822631 0.5 0.288378 -0.620038
481 1 0.148211 0.531188 0.5 -0.862856 0.0201319
482 1 0.0546684 0.490403 0.5 0.0425607 0.772715
483 1 0.00272291 0.423607 0.5 -0.212813 0.591644
484 1 0.839289 0.635012 0.5 0.753904 -0.0893677
485 1 0.19176 0.259482 0.5 -0.281814 -0.732216
486 1 0.143398 0.364539 0.5 0.428644 0.0942307
487 1 0.273949 0.756616 0.5 -0.318159 -0.0229886
488 1 0.269913 0.284805 0.5 0.307658 0.703305
489 1 0.0869571 0.330253 0.5 -0.188748 -0.655837
490 1 0.0615989 0.319961 0.5 0.113394 -0.482219
491 1 0.949951 0.259272 0.5 0.62204 -0.70632
492 1 0.205228 0.203605 0.5 0.539535 -0.509695
493 1 0.132515 0.303127 0.5 0.224685 -0.946334
494 1 0.984895 0.575373 0.5 0.0608822 0.891156
495 1 0.135534 0.437491 0.5 0.863563 -0.127752
496 1 0.114412 0.33509 0.5 0.204357 -0.442283
497 1 0.0724248 0.336914 0.5 0.386213 0.0235296
498 1 0.081792 0.339908 0.5 0.114253 -0.125264
499 1 0.295651 0.547778 0.5 -0.587633 -0.283908
500 1 0.00663597 0.43615 0.5 -0.353933 0.590347
501 1 0.0382879 0.559593 0.5 -0.373028 0.853585
502 1 0.0566137 0.162424 0.5 -0.516488 -0.527789
503 1 0.963496 0.29315 0.5 0.875915 -0.334941
504 1 0.260237 0.548294 0.5 0.270307 -0.00304464
505 1 0.168918 0.372277 0.5 0.602538 -0.146497
506 1 0.296763 0.51813 0.5 -0.213406 -0.363258
507 1 0.195345 0.220947 0.5 0.254397 -0.0473769
508 1 0.22754 0.55877 0.5 -0.791277 0.072085
509 1 0.030547 0.251449 0.5 2.52178e-05 0.0900008
510 1 0.989469 0.40379 0.5 -0.157289 -0.865522
511 1 0.0390029 0.400206 0.5 0.50952 0.217464
512 1 0.94265 0.604835 0.5 0.734381 0.439713
513 1 0.151613 0.156766 0.5 -0.595411 0.277555
514 1 0.946636 0.614001 0.5 0.587509 0.591062
515 1 0.203623 0.361805 0.5 -0.149452 -0.960118
516 1 0.122295 0.447181 0.5 0.700598 -0.289748
517 1 0.0890436 0.673913 0.5 -0.324846 -0.796385
518 1 0.282774 0.581637 0.5 -0.856763 -0.461563
519 1 0.0962221 0.357292 0.5 0.468936 -0.241447
520 1 0.175404 0.414565 0.5 0.373165 0.00185298
521 1 0.896004 0.239655 0.5 0.139096 -0.603038
522 1 0.0284928 0.238739 0.5 -0.215578 0.171532
523 1 0.0861517 0.295381 0.5 -0.168225 -0.907563
524 1 0.0661818 0.145539 0.5 -0.0951441 0.105986
525 1 0.0407121 0.242295 0.5 -0.110866 0.246963
526 1 0.331384 0.501729 0.5 0.453406 -0.689435
527 1 0.184532 0.549019 0.5 -0.552056 -0.142694
528 1 0.9639 0.525435 0.5 0.61608 -0.520052
529 1 0.0948965 0.450733 0.5 0.0555936 0.202001
530 1 0.947438 0.173455 0.5 -0.0103986 -0.919522
531 1 0.0208238 0.389711 0.5 0.20978 0.519424
532 1 0.187015 0.348596 0.5 -0.0114644 -0.917382
533 1 0.209323 0.378618 0.5 -0.296187 -0.917217
534 1 0.243784 0.488724 0.5 -0.48651 -0.66825
535 1 0.967688 0.351915 0.5 -0.79801 -0.483253
536 1 0.988713 0.249496 0.5 0.168798 -0.339584
537 1 0.0257501 0.313602 0.5 -0.341226 -0.548445
538 1 0.263563 0.478793 0.5 -0.297529 -0.754513
539 1 0.172336 0.576575 0.5 -0.683879 0.162791
540 1 0.0719451 0.48438 0.5 0.0858774 0.760154
541 1 0.334588 0.667773 0.5 -0.62107 0.262183
542 1 0.1887 0.432437 0.5 -0.129716 -0.102731
543 1 0.960423 0.456098 0.5 -0.880224 -0.119801
544 1 0.246628 0.241267 0.5 -0.674178 0.468151
545 1 0.0150857 0.203217 0.5 -0.4225 -0.800891
546 1 0.994951 0.336562 0.5 -0.840026 0.03566
547 1 0.855199 0.642668 0.5 0.203614 -0.538869
548 1 0.235979 0.564567 0.5 -0.81376 -0.16462
549 1 0.15003 0.308253 0.5 0.147595 -0.983764
550 1 0.266576 0.517695 0.5 -0.891354 -0.0937006
551 1 0.246998 0.377385 0.5 -0.297635 -0.731881
552 1 0.114054 0.308806 0.5 0.157409 -0.334541
553 1 0.0743063 0.374734 0.5 0.826585 -0.406848
554 1 0.0139226 0.428697 0.5 -0.344339 0.822516
555 1 0.0558479 0.256718 0.5 0.34951 -0.238443
556 1 0.0652541 0.264418 0.5 -0.174083 -0.864292
557 1 0.122425 0.382664 0.5 0.745786 -0.0992834
558 1 0.0886191 0.479211 0.5 0.503944 0.835329
559 1 0.208871 0.261754 0.5 0.157118 -0.691478
560 1 0.944367 0.295724 0.5 0.409137 -0.720418
561 1 0.931759 0.55817 0.5 0.828061 0.00665497
562 1 0.114578 0.436877 0.5 0.387047 -0.0753832
563 1 0.0202186 0.345744 0.5 -0.133499 -0.525595
564 1 0.144524 0.38383 0.5 0.443906 -0.0549167
565 1 0.0246518 0.401496 0.5 0.471876 0.184537
566 1 0.877736 0.245321 0.5 0.251079 -0.705046
567 1 0.0391049 0.530951 0.5 0.345209 0.563396
568 1 0.953189 0.249223 0.5 0.372844 -0.83921
569 1 0.0915521 0.382998 0.5 0.659221 -0.595443
570 1 0.238735 0.368811 0.5 -0.396091 -0.810393
571 1 0.0381737 0.418279 0.5 0.469296 0.788487
572 1 0.973195 0.293176 0.5 0.463094 -0.233694
573 1 0.100066 0.150007 0.5 0.149324 -0.287989
574 1 0.0349145 0.168638 0.5 0.900957 -0.250329
575 1 0.0345029 0.308915 0.5 -0.476231 -0.706678
576 1 0.112191 0.48281 0.5 0.5456 0.245825
577 1 0.16006 0.173338 0.5 -0.726456 0.254509
578 1 0.00747392 0.231068 0.5 -0.158826 -0.544831
579 1 0.105835 0.373425 0.5 0.615185 0.0450218
580 1 0.15364 0.232147 0.5 0.0415985 -0.370911
581 1 0.278056 0.424088 0.5 -0.530893 -0.792786
582 1 0.171316 0.425182 0.5 0.570472 -0.657133
583 1 0.982733 0.184473 0.5 -0.189098 -0.939035
584 1 0.987161 0.330907 0.5 -0.917792 -0.17882
585 1 0.0530977 0.5179 0.5 0.249691 0.874395
586 1 0.169449 0.504571 0.5 -0.147658 -0.909206
587 1 0.957454 0.17115 0.5 0.0291135 -0.856033
588 1 0.117781 0.170292 0.5 -0.58649 0.207095
589 1 0.958119 0.515639 0.5 0.637326 -0.492878
590 1 0.0700391 0.174821 0.5 0.280451 -0.690112
591 1 0.119569 0.287495 0.5 0.282962 -0.489693
592 1 0.913346 0.303999 0.5 -0.764488 -0.0113007
593 1 0.178219 0.501001 0.5 -0.622871 -0.49022
594 1 0.324718 0.421794 0.5 -0.565887 0.682329
595 1 0.0706573 0.552276 0.5 -0.0290114 0.681405
596 1 0.172741 0.305015 0.5 0.315885 -0.367421
597 1 0.399602 0.439288 0.5 -0.00905738 0.289127
598 1 0.156954 0.203694 0.5 -0.0628534 -0.0507816
599 1 0.323737 0.532036 0.5 0.0367853 -0.710414
600 1 0.208216 0.388056 0.5 -0.519716 -0.697364
601 1 0.215383 0.202313 0.5 0.258711 -0.796699
602 1 0.185978 0.416177 0.5 -0.09841 -0.0165208
603 1 0.145933 0.135754 0.5 0.188349 0.0783916
604 1 0.158442 0.277513 0.5 -0.354876 -0.524446
605 1 0.140028 0.608826 0.5 0.34694 0.599515
606 1 0.129428 0.228144 0.5 0.245466 0.217396
607 1 0.00500243 0.283244 0.5 -0.494434 -0.831696
608 1 0.972273 0.186554 0.5 0.245737 -0.932148
609 1 0.179147 0.368233 0.5 0.100987 -0.0932267
610 1 0.943889 0.577888 0.5 0.307265 -0.142412
611 1 0.226422 0.578253 0.5 -0.656669 -0.0892077
612 1 0.0374875 0.298452 0.5 -0.313798 -0.717248
613 1 0.119374 0.344046 0.5 0.432272 -0.230216
614 1 0.169528 0.246967 0.5 -0.239066 -0.421332
615 1 0.926186 0.35608 0.5 -0.469768 0.533013
616 1 0.0893077 0.365588 0.5 0.776188 0.105928
617 1 0.930329 0.23322 0.5 0.0239635 -0.879845
618 1 0.104679 0.273716 0.5 -0.527139 -0.193523
619 1 0.187309 0.467128 0.5 -0.362732 0.115679
620 1 0.290337 0.62928 0.5 -0.680105 0.0384749
621 1 0.147719 0.479885 0.5 -0.271641 -0.835273
622 1 0.292037 0.57758 0.5 -0.915107 -0.340573
623 1 0.468595 0.652695 0.5 0.00480216 -0.280977
624 1 0.305937 0.677382 0.5 -0.330519 0.788283
625 1 0.273889 0.648952 0.5 -0.291806 0.223113
626 1 0.0154573 0.477293 0.5 -0.163158 0.898763
627 1 0.0533314 0.330615 0.5 -0.221831 0.1464
628 1 0.222231 0.438438 0.5 -0.223696 -0.827999