ITEM: TIMESTEP
0
ITEM: NUMBER OF ATOMS
9963
ITEM: BOX BOUNDS pp pp pp
-5.8359999999999999e+01 5.8359999999999999e+01
-5.8359999999999999e+01 5.8359999999999999e+01
-5.0000000000000000e-01 5.0000000000000000e-01
ITEM: ATOMS id type xs ys zs c_002[1] c_002[2]
1 1 0.137776 0.245696 0.5 -0.226803 0.634687
2 1 0.0430009 0.106531 0.5 -0.022966 -0.930749
3 1 0.143144 0.153285 0.5 -0.152333 -0.868404
4 1 0.0517976 0.232325 0.5 0.146003 0.174465
5 1 0.363224 0.294245 0.5 0.400012 -0.771446
6 1 0.24671 0.452557 0.5 0.261529 -0.225095
7 1 0.0934977 0.414056 0.5 0.34874 -0.41893
8 1 0.10597 0.149566 0.5 -0.326267 -0.61004
9 1 0.156201 0.244346 0.5 -0.823239 0.0143091
10 1 0.126248 0.15196 0.5 -0.445669 -0.532293
11 1 0.0769913 0.0741825 0.5 -0.253904 -0.464973
12 1 0.138048 0.257176 0.5 -0.912432 0.0423379
13 1 0.103009 0.0452111 0.5 0.37458 -0.147694
14 1 0.16799 0.166693 0.5 0.228702 -0.693453
15 1 0.114948 0.108153 0.5 -0.619734 -0.673187
16 1 0.119709 0.266499 0.5 -0.513117 -0.333417
17 1 0.0428925 0.144378 0.5 -0.463328 -0.679433
18 1 0.050265 0.0490281 0.5 -0.703066 -0.0280328
19 1 0.119031 0.0882453 0.5 0.202967 -0.862001
20 1 0.0543081 0.101995 0.5 -0.596281 -0.365101
21 1 0.173035 0.345417 0.5 -0.0541743 0.86571
22 1 0.244857 0.330437 0.5 -0.790085 0.431569
23 1 0.159401 0.0724969 0.5 -0.461177 -0.674359
24 1 0.110445 0.18478 0.5 -0.630581 -0.731923
25 1 0.120112 0.221635 0.5 0.563873 -0.375653
26 1 0.12704 0.273163 0.5 -0.374991 -0.534075
27 1 0.00695904 0.142276 0.5 -0.831638 0.269881
28 1 0.243379 0.289014 0.5 -0.46897 -0.137835
29 1 0.105135 0.261081 0.5 0.481493 -0.585598
30 1 0.0215469 0.0641947 0.5 -0.841248 -0.227217
31 1 0.234287 0.306848 0.5 -0.675114 0.374647
32 1 0.091172 0.35531 0.5 0.809937 -0.360311
33 1 0.19822 0.192993 0.5 0.501448 -0.528697
34 1 0.150974 0.402022 0.5 0.393415 -0.207071
35 1 0.22857 0.106982 0.5 0.203913 -0.372075
36 1 0.226512 0.29195 0.5 -0.457006 -0.155725
37 1 0.0621217 0.1362 0.5 -0.168105 -0.914878
38 1 0.147533 0.262803 0.5 -0.811981 0.265148
39 1 0.127216 0.357379 0.5 -0.250567 0.765984
40 1 0.18815 0.231814 0.5 -0.217066 0.159298
41 1 0.095694 0.0644533 0.5 -0.596908 -0.534105
42 1 0.164594 0.41711 0.5 0.925081 -0.0131172
43 1 0.158936 0.276139 0.5 -0.210978 0.323432
44 1 0.145628 0.0936185 0.5 0.242717 -0.32685
45 1 0.174261 0.309245 0.5 0.240211 -0.225525
46 1 0.0858133 0.165194 0.5 -0.523091 -0.628981
47 1 0.163622 0.292768 0.5 0.492534 -0.521007
48 1 0.12768 0.347359 0.5 0.215546 0.138003
49 1 0.141153 0.894928 0.5 0.0456011 -0.752821
50 1 0.997949 0.282425 0.5 0.350059 0.0506635
51 1 0.175079 0.254713 0.5 -0.920127 0.026957
52 1 0.0045513 0.225102 0.5 0.712308 -0.15567
53 1 0.139287 0.174436 0.5 -0.714095 -0.412457
54 1 0.115855 0.0985022 0.5 -0.357874 -0.803911
55 1 0.170663 0.335478 0.5 -0.188622 0.778675
56 1 0.252177 0.442911 0.5 0.778987 -0.135385
57 1 0.114216 0.165477 0.5 -0.782833 -0.463594
58 1 0.0146458 0.0405305 0.5 0.557446 -0.216766
59 1 0.0794987 0.100019 0.5 -0.133132 -0.873087
60 1 0.14247 0.381914 0.5 -0.446717 0.735438
61 1 0.131684 0.221489 0.5 -0.00750875 0.267059
62 1 0.167765 0.228071 0.5 -0.793552 -0.167129
63 1 0.153975 0.295299 0.5 0.527839 0.0569821
64 1 0.118851 0.255056 0.5 -0.199487 -0.035795
65 1 0.138336 0.0447703 0.5 -0.543737 -0.747461
66 1 0.214205 0.309451 0.5 0.134061 0.427174
67 1 0.00571862 0.132152 0.5 -0.659997 -0.279645
68 1 0.0624362 0.234269 0.5 0.523253 0.764057
69 1 0.0998534 0.0359636 0.5 -0.145385 0.748234
70 1 0.149388 0.229414 0.5 -0.213501 0.0934875
71 1 0.106037 0.309298 0.5 0.891219 0.306043
72 1 0.0649601 0.216775 0.5 0.330707 0.352653
73 1 0.237995 0.347175 0.5 -0.244516 0.721715
74 1 0.0596342 0.148202 0.5 -0.425685 -0.708962
75 1 0.095207 0.262356 0.5 0.358056 -0.651918
76 1 0.19412 0.248326 0.5 -0.18812 -0.770308
77 1 0.0936115 0.00618896 0.5 -0.0523572 -0.735578
78 1 0.0651099 0.0360754 0.5 -0.528628 0.746808
79 1 0.999444 0.216473 0.5 0.436586 0.0653018
80 1 0.217739 0.233638 0.5 -0.45977 -0.324304
81 1 0.146702 0.353255 0.5 -0.667686 0.501692
82 1 0.0858568 0.364144 0.5 0.703476 0.0538846
83 1 0.998146 0.309557 0.5 0.903668 -0.131199
84 1 0.204449 0.309771 0.5 0.340238 -0.235359
85 1 0.0289391 0.157757 0.5 0.433118 -0.269607
86 1 0.198564 0.143814 0.5 -0.578819 -0.651986
87 1 0.0589825 0.158562 0.5 -0.683206 -0.500231
88 1 0.0587587 0.225125 0.5 0.684311 0.567902
89 1 0.275743 0.294402 0.5 0.330188 -0.737166
90 1 0.983421 0.300948 0.5 0.515126 -0.135688
91 1 0.156025 0.0466405 0.5 -0.29346 -0.785459
92 1 0.981757 0.284887 0.5 0.295941 0.310258
93 1 0.227184 0.0719213 0.5 -0.70632 -0.528493
94 1 0.117222 0.233739 0.5 0.332694 -0.701096
95 1 0.137188 0.305889 0.5 0.371393 0.0434242
96 1 0.14981 0.442918 0.5 0.519785 -0.450342
97 1 0.0820093 0.276132 0.5 -0.148727 -0.568909
98 1 0.0842219 0.956794 0.5 -0.0656181 -0.133475
99 1 0.182737 0.273957 0.5 0.0247069 -0.508932
100 1 0.186465 0.371942 0.5 -0.638084 0.240903
101 1 0.0666572 0.24314 0.5 0.103445 0.579649
102 1 0.026193 0.0413075 0.5 0.803303 0.407282
103 1 0.156219 0.183801 0.5 -0.466913 0.174302
104 1 0.966445 0.452691 0.5 0.514157 -0.354113
105 1 0.14958 0.274033 0.5 -0.177805 0.134352
106 1 0.10261 0.17946 0.5 -0.562759 -0.727152
107 1 0.183434 0.250161 0.5 -0.405156 -0.455948
108 1 0.269012 0.359142 0.5 -0.547785 0.469885
109 1 0.182347 0.0551556 0.5 -0.372779 -0.825966
110 1 0.00779007 0.393004 0.5 -0.437154 -0.827293
111 1 0.0941794 0.0766931 0.5 -0.47635 -0.798596
112 1 0.965738 0.295859 0.5 0.195744 -0.0471895
113 1 0.0791191 0.285137 0.5 0.681408 -0.209944
114 1 0.124105 0.302856 0.5 -0.0644465 0.766183
115 1 0.058599 0.287429 0.5 0.462479 0.170388
116 1 0.128317 0.187605 0.5 -0.375176 -0.883849
117 1 0.107751 0.403804 0.5 0.692414 0.0520168
118 1 0.177083 0.150202 0.5 0.67104 -0.243122
119 1 0.0700079 0.144534 0.5 -0.412748 -0.82494
120 1 0.252796 0.284114 0.5 -0.401283 -0.0275363
121 1 0.123019 0.171277 0.5 -0.539006 -0.562261
122 1 0.119724 0.364918 0.5 0.164986 0.829705
123 1 0.28943 0.253349 0.5 0.219913 -0.31692
124 1 0.171575 0.186816 0.5 0.367839 -0.51566
125 1 0.00860721 0.96187 0.5 0.0736426 0.851497
126 1 0.0403835 0.0635787 0.5 -0.599729 0.503654
127 1 0.0633171 0.0261688 0.5 -0.695889 0.573788
128 1 0.105704 0.112328 0.5 -0.553365 -0.681204
129 1 0.272897 0.275309 0.5 -0.509448 -0.664559
130 1 0.104285 0.369139 0.5 -0.656326 0.331726
131 1 0.179709 0.338247 0.5 -0.244727 0.907836
132 1 0.103697 0.991747 0.5 -0.391253 0.143964
133 1 0.038262 0.165894 0.5 -0.00491689 -0.757237
134 1 0.0892757 0.097918 0.5 0.0171117 -0.974812
135 1 0.191152 0.352667 0.5 0.379385 0.3644
136 1 0.0360919 0.0996889 0.5 0.199009 -0.933419
137 1 0.987548 0.959149 0.5 0.0976578 0.712312
138 1 0.186747 0.392815 0.5 -0.313072 0.641288
139 1 0.116219 0.0599216 0.5 0.0842571 -0.942761
140 1 0.147492 0.250104 0.5 -0.840703 0.402454
141 1 0.177938 0.462778 0.5 0.31054 0.837726
142 1 0.0214357 0.0510413 0.5 0.397451 0.15774
143 1 0.0497773 0.31431 0.5 0.529295 0.172932
144 1 0.158419 0.233778 0.5 -0.759651 -0.234443
145 1 0.147899 0.178827 0.5 -0.919953 0.0648622
146 1 0.109921 0.251729 0.5 0.0210499 -0.261924
147 1 0.166822 0.282654 0.5 0.156299 -0.390597
148 1 0.0375947 0.303717 0.5 0.558451 0.647382
149 1 0.131117 0.419389 0.5 0.83639 -0.216468
150 1 0.118899 0.136133 0.5 -0.816775 -0.484674
151 1 0.10967 0.0200946 0.5 -0.637883 -0.21404
152 1 0.0677189 0.153781 0.5 -0.697424 -0.392049
153 1 0.163687 0.34194 0.5 -0.498104 0.478593
154 1 0.216214 0.0353092 0.5 -0.0507398 -0.583905
155 1 0.135046 0.194132 0.5 -0.356481 -0.625642
156 1 0.19734 0.323343 0.5 -0.518147 0.338306
157 1 0.104462 0.973852 0.5 0.527695 -0.527657
158 1 0.155961 0.266665 0.5 -0.302796 0.566183
159 1 0.26357 0.201727 0.5 0.599456 -0.248225
160 1 0.0702499 0.104141 0.5 -0.452891 -0.794792
161 1 0.032706 0.109045 0.5 0.235993 -0.286313
162 1 0.0421021 0.155832 0.5 -0.166798 -0.705253
163 1 0.182051 0.141673 0.5 0.168988 -0.614565
164 1 0.9255 0.310772 0.5 0.380731 -0.483717
165 1 0.149137 0.169098 0.5 -0.459151 0.0707102
166 1 0.0104313 0.0900236 0.5 -0.720816 -0.606682
167 1 0.0505305 0.36206 0.5 0.277369 -0.352242
168 1 0.169003 0.0335917 0.5 -0.338975 -0.814971
169 1 0.142836 0.105558 0.5 -0.656229 -0.376797
170 1 0.0663242 0.920345 0.5 0.434144 0.601535
171 1 0.144946 0.060437 0.5 -0.263549 -0.770259
172 1 0.0235923 0.274828 0.5 0.641799 0.0112284
173 1 0.104113 0.169171 0.5 -0.664421 -0.671966
174 1 0.198825 0.0704757 0.5 0.147976 -0.967229
175 1 0.219284 0.351602 0.5 -0.255705 0.902682
176 1 0.0731192 0.313045 0.5 0.827379 -0.398072
177 1 0.955584 0.295888 0.5 0.188517 -0.711745
178 1 0.202983 0.368455 0.5 -0.0329404 0.435039
179 1 0.186558 0.320585 0.5 -0.204351 0.83077
180 1 0.214084 0.269009 0.5 -0.396177 0.111495
181 1 0.0942106 0.172271 0.5 -0.555485 -0.77843
182 1 0.122074 0.114763 0.5 -0.459308 -0.840704
183 1 0.111201 0.983546 0.5 0.577899 -0.219794
184 1 0.0800717 0.140737 0.5 -0.667765 -0.441028
185 1 0.114239 0.154571 0.5 -0.417399 -0.354268
186 1 0.889639 0.287781 0.5 0.214501 -0.944243
187 1 0.112594 0.0790788 0.5 -0.126692 -0.820595
188 1 0.151883 0.160287 0.5 -0.0504923 -0.643383
189 1 0.108777 0.194881 0.5 -0.413262 -0.801564
190 1 0.995409 0.227977 0.5 0.398864 -0.460616
191 1 0.0724228 0.276332 0.5 0.244299 0.227939
192 1 0.150781 0.373832 0.5 -0.508336 0.679655
193 1 0.0783338 0.150313 0.5 -0.743211 -0.526309
194 1 0.21019 0.250414 0.5 -0.187487 0.510688
195 1 0.169565 0.425582 0.5 0.994035 0.0227028
196 1 0.141422 0.370204 0.5 -0.0685179 0.849613
197 1 0.0785544 0.988786 0.5 0.177592 -0.675615
198 1 0.11388 0.373567 0.5 -0.194989 0.444388
199 1 0.0617661 0.107938 0.5 -0.344831 -0.646996
200 1 0.204672 0.265496 0.5 -0.209732 0.570764
201 1 0.0808922 0.131318 0.5 -0.0790094 -0.381566
202 1 0.0684488 0.163675 0.5 -0.406944 -0.457174
203 1 0.137735 0.348359 0.5 0.000832344 0.430766
204 1 0.0416109 0.215867 0.5 0.655365 0.363643
205 1 0.0684284 0.116634 0.5 -0.0199704 -0.682633
206 1 0.128118 0.313023 0.5 0.220105 0.537369
207 1 0.0642132 0.3472 0.5 -0.311362 -0.293512
208 1 0.0458528 0.0967122 0.5 -0.180117 -0.392163
209 1 0.0721062 0.0936388 0.5 -0.11332 -0.929744
210 1 0.15936 0.42586 0.5 0.967135 -0.0365755
211 1 0.139139 0.136339 0.5 -0.550391 -0.569639
212 1 0.176801 0.327678 0.5 -0.415413 0.574909
213 1 0.0116799 0.293009 0.5 0.50743 0.763033
214 1 0.965382 0.377643 0.5 0.240947 -0.920513
215 1 0.194266 0.301615 0.5 0.111336 -0.236708
216 1 0.0156297 0.145829 0.5 -0.680292 0.617214
217 1 0.143297 0.199892 0.5 0.0807482 0.228618
218 1 0.118995 0.19138 0.5 -0.54871 -0.785561
219 1 0.117415 0.354527 0.5 -0.055108 0.793773
220 1 0.112659 0.997772 0.5 -0.583025 -0.493647
221 1 0.100463 0.189207 0.5 -0.326118 -0.81026
222 1 0.045102 0.342133 0.5 0.450864 -0.192815
223 1 0.133274 0.286573 0.5 -0.244177 -0.200415
224 1 0.0849297 0.310585 0.5 0.703372 -0.467409
225 1 0.0942389 0.11547 0.5 -0.419624 -0.656803
226 1 0.070395 0.372465 0.5 0.126315 -0.690827
227 1 0.0585588 0.0535824 0.5 -0.774916 -0.0862539
228 1 0.0199955 0.086125 0.5 -0.710801 -0.61292
229 1 0.123647 0.242813 0.5 0.295318 -0.393938
230 1 0.143021 0.339615 0.5 -0.2072 0.671183
231 1 0.17881 0.1973 0.5 0.736187 -0.290506
232 1 0.181579 0.0647372 0.5 -0.425987 -0.705929
233 1 0.218513 0.286069 0.5 -0.480123 -0.708391
234 1 0.156885 0.255573 0.5 -0.744482 0.369324
235 1 0.0851723 0.120847 0.5 -0.284044 -0.474857
236 1 0.25254 0.305967 0.5 -0.755168 -0.00649774
237 1 0.184217 0.311231 0.5 0.301382 0.718557
238 1 0.167076 0.301593 0.5 0.320247 -0.419066
239 1 0.0581822 0.118333 0.5 0.00083379 -0.737695
240 1 0.126087 0.198366 0.5 -0.673908 -0.461433
241 1 0.101594 0.439507 0.5 0.278762 -0.449959
242 1 0.0920722 0.976666 0.5 0.0764024 -0.488181
243 1 0.198884 0.23453 0.5 -0.033713 0.741091
244 1 0.14547 0.238347 0.5 0.106587 0.430697
245 1 0.0883353 0.155996 0.5 -0.401573 -0.742719
246 1 0.156948 0.128261 0.5 -0.371249 -0.81542
247 1 0.99676 0.987918 0.5 0.0304118 -0.212615
248 1 0.00488657 0.318539 0.5 0.508614 0.133652
249 1 0.076193 0.209271 0.5 -0.47691 -0.251014
250 1 0.0972975 0.153306 0.5 -0.336895 -0.867751
251 1 0.0676306 0.073224 0.5 -0.0405538 -0.465361
252 1 0.0862495 0.255811 0.5 0.0331836 -0.808176
253 1 0.077801 0.0631473 0.5 -0.0597598 -0.230267
254 1 0.117761 0.275677 0.5 0.0781763 -0.907229
255 1 0.095246 0.162946 0.5 -0.331649 -0.839369
256 1 0.161232 0.159065 0.5 0.122336 -0.869506
257 1 0.190937 0.213009 0.5 0.67811 -0.632156
258 1 0.235659 0.327086 0.5 -0.717501 0.631403
259 1 0.106304 0.213672 0.5 -0.217757 0.41481
260 1 0.0213608 0.0736669 0.5 -0.754117 -0.26104
261 1 0.0623363 0.0965719 0.5 -0.595659 -0.538716
262 1 0.175153 0.244687 0.5 -0.592135 -0.662586
263 1 0.113063 0.117788 0.5 -0.553761 -0.769812
264 1 0.00331696 0.0532701 0.5 -0.863136 -0.205879
265 1 0.101343 0.132204 0.5 -0.12073 -0.932316
266 1 0.109802 0.457798 0.5 0.42646 -0.83188
267 1 0.0718786 0.190635 0.5 -0.800108 -0.480561
268 1 0.122581 0.339097 0.5 0.12004 -0.118433
269 1 0.228372 0.204708 0.5 -0.05738 -0.173224
270 1 0.180375 0.103652 0.5 0.0839939 -0.835845
271 1 0.134217 0.377374 0.5 -0.149786 0.630887
272 1 0.0531407 0.243007 0.5 0.455995 0.22712
273 1 0.143656 0.991088 0.5 0.177655 -0.32158
274 1 0.0548772 0.178431 0.5 -0.439097 -0.784191
275 1 0.0745096 0.170914 0.5 -0.180918 -0.588102
276 1 0.230664 0.353737 0.5 -0.228486 0.801196
277 1 0.101124 0.300239 0.5 0.689758 -0.493636
278 1 0.222644 0.273469 0.5 -0.00200249 -0.355954
279 1 0.0533798 0.27797 0.5 0.349033 0.345516
280 1 0.127379 0.141824 0.5 -0.759148 -0.37034
281 1 0.16675 0.125878 0.5 0.00689439 -0.889648
282 1 0.0828663 0.265715 0.5 0.00209671 -0.697858
283 1 0.972434 0.385274 0.5 0.0546864 -0.922532
284 1 0.140681 0.164978 0.5 -0.245734 -0.608933
285 1 0.992123 0.111208 0.5 -0.624743 -0.365169
286 1 0.0519352 0.188215 0.5 -0.372441 -0.327213
287 1 0.00956242 0.216714 0.5 0.60831 0.211163
288 1 0.166224 0.259561 0.5 -0.878505 0.180567
289 1 0.124391 0.329667 0.5 -0.29985 0.162638
290 1 0.0507327 0.151606 0.5 -0.485664 -0.821624
291 1 0.957292 0.352083 0.5 0.390529 -0.3619
292 1 0.248197 0.0243276 0.5 -0.316948 -0.422443
293 1 0.0487855 0.912625 0.5 -0.213375 -0.443227
294 1 0.140092 0.226774 0.5 -0.126277 0.421984
295 1 0.167741 0.323057 0.5 -0.310429 0.664923
296 1 0.0209101 0.295044 0.5 0.248851 0.334984
297 1 0.0345721 0.00613915 0.5 0.305054 -0.0152724
298 1 0.0722169 0.294013 0.5 0.652139 -0.0973192
299 1 0.0870721 0.0589395 0.5 -0.553276 0.0219877
300 1 0.100321 0.982661 0.5 0.260936 -0.191744
301 1 0.0976385 0.219074 0.5 -0.701578 0.641447
302 1 0.0742189 0.0542366 0.5 -0.15756 0.148864
303 1 0.996567 0.135503 0.5 -0.756647 -0.202791
304 1 0.07079 0.980007 0.5 0.51811 0.23958
305 1 0.136189 0.276713 0.5 -0.354187 -0.429172
306 1 0.099011 0.142738 0.5 -0.132515 -0.929436
307 1 0.118503 0.145922 0.5 -0.437874 -0.542177
308 1 0.0115547 0.356756 0.5 0.433727 -0.104909
309 1 0.295654 0.26075 0.5 0.209318 -0.710298
310 1 0.157858 0.193393 0.5 0.0722721 0.372221
311 1 0.0585765 0.0658737 0.5 -0.601051 -0.618304
312 1 0.142058 0.314447 0.5 0.529879 -0.134783
313 1 0.205894 0.227012 0.5 -0.419456 0.0323237
314 1 0.0232106 0.177428 0.5 0.806358 -0.310957
315 1 0.0925091 0.685595 0.5 -0.230593 -0.571756
316 1 0.212306 0.702776 0.5 0.0680916 -0.885362
317 1 0.0875054 0.619297 0.5 -0.385172 -0.089373
318 1 0.991615 0.336995 0.5 0.810495 0.295892
319 1 0.133279 0.454487 0.5 0.691989 -0.0186853
320 1 0.0441072 0.55216 0.5 -0.180782 -0.784211
321 1 0.0606915 0.557564 0.5 -0.41734 -0.220513
322 1 0.186917 0.587855 0.5 -0.261639 -0.735567
323 1 0.174146 0.530374 0.5 -0.724941 -0.536633
324 1 0.819072 0.322139 0.5 0.355839 -0.489914
325 1 0.202015 0.531671 0.5 -0.736753 -0.260251
326 1 0.144807 0.561797 0.5 -0.952717 -0.259115
327 1 0.219525 0.437163 0.5 0.345108 -0.0457061
328 1 0.0299535 0.362907 0.5 0.918814 -0.0937668
329 1 0.0242815 0.473964 0.5 -0.0747538 -0.878261
330 1 0.178901 0.627507 0.5 -0.404873 -0.791237
331 1 0.130262 0.493702 0.5 -0.0320218 -0.302796
332 1 0.107404 0.603227 0.5 -0.374264 -0.5076
333 1 0.148005 0.426874 0.5 0.801553 -0.302882
334 1 0.0700118 0.47526 0.5 -0.398956 -0.553895
335 1 0.114948 0.345192 0.5 0.137946 0.630272
336 1 0.131625 0.517178 0.5 -0.609331 -0.723826
337 1 0.090701 0.55353 0.5 -0.689613 -0.391105
338 1 0.174213 0.433894 0.5 0.928448 -0.227025
339 1 0.122674 0.569783 0.5 -0.396811 -0.634885
340 1 0.121025 0.439347 0.5 0.646081 0.549342
341 1 0.204578 0.37784 0.5 -0.545757 0.762836
342 1 0.917312 0.375216 0.5 0.494011 -0.622042
343 1 0.0702937 0.600333 0.5 -0.330822 0.300299
344 1 0.0518707 0.619689 0.5 -0.16319 -0.443413
345 1 0.0130115 0.484399 0.5 0.507969 -0.427644
346 1 0.100002 0.548284 0.5 -0.484094 -0.621229
347 1 0.0970283 0.404447 0.5 0.139304 -0.310906
348 1 0.140278 0.581211 0.5 -0.188788 -0.39322
349 1 0.979918 0.241006 0.5 0.449872 -0.753949
350 1 0.956985 0.52953 0.5 0.360145 -0.488157
351 1 0.0972353 0.571757 0.5 -0.813934 -0.442882
352 1 0.118572 0.542632 0.5 -0.304966 -0.732976
353 1 0.0305729 0.311223 0.5 0.345923 0.615548
354 1 0.0359897 0.641721 0.5 0.0202841 -0.876747
355 1 0.0623601 0.429645 0.5 0.304527 -0.618008
356 1 0.0704986 0.46526 0.5 0.0326582 0.340952
357 1 0.0888044 0.462299 0.5 -0.185098 -0.413878
358 1 0.100613 0.244075 0.5 0.13472 -0.644193
359 1 0.976594 0.346389 0.5 0.868182 -0.323292
360 1 0.138557 0.534096 0.5 -0.70206 -0.609861
361 1 0.0794236 0.229268 0.5 -0.186685 0.52093
362 1 0.0849496 0.388089 0.5 -0.430185 -0.645659
363 1 0.00678816 0.465359 0.5 0.165136 -0.698844
364 1 0.155079 0.345989 0.5 -0.580398 0.262558
365 1 0.175409 0.519659 0.5 -0.464114 -0.756463
366 1 0.985784 0.408886 0.5 -0.358323 -0.898071
367 1 0.0819339 0.651735 0.5 -0.296812 -0.0371592
368 1 0.0143588 0.423286 0.5 0.469461 0.0958425
369 1 0.106264 0.556077 0.5 -0.426083 -0.68252
370 1 0.135247 0.624827 0.5 -0.260546 -0.519785
371 1 0.0262111 0.464384 0.5 -0.215023 -0.771697
372 1 0.164402 0.434558 0.5 0.965304 -0.084332
373 1 0.0897824 0.645984 0.5 -0.443409 0.0469508
374 1 0.0672417 0.486824 0.5 -0.345354 -0.582788
375 1 0.179201 0.425809 0.5 0.630919 -0.0468402
376 1 0.0628166 0.405542 0.5 -0.398759 -0.534242
377 1 0.18142 0.561774 0.5 -0.341801 -0.180559
378 1 0.129641 0.537996 0.5 -0.61515 -0.73453
379 1 0.152237 0.385443 0.5 -0.64174 0.56643
380 1 0.157094 0.596958 0.5 -0.698994 -0.536263
381 1 0.172242 0.609753 0.5 -0.124333 -0.926138
382 1 0.0476305 0.304707 0.5 0.629365 0.536099
383 1 0.0461304 0.442311 0.5 -0.476212 -0.134685
384 1 0.150371 0.637753 0.5 -0.212817 -0.657856
385 1 0.232687 0.524157 0.5 -0.317493 0.602454
386 1 0.967462 0.305688 0.5 0.0353501 0.57886
387 1 0.250087 0.606712 0.5 0.497771 -0.424873
388 1 0.12752 0.548387 0.5 -0.621606 -0.71325
389 1 0.11425 0.299101 0.5 -0.0367483 0.545065
390 1 0.0486818 0.530957 0.5 0.382462 -0.74189
391 1 0.908941 0.618572 0.5 0.415414 -0.69726
392 1 0.0411993 0.333456 0.5 0.69356 0.0209537
393 1 0.0339085 0.616256 0.5 0.0561663 -0.368247
394 1 0.151899 0.500812 0.5 -0.631804 -0.373799
395 1 0.139119 0.524123 0.5 -0.663568 -0.639187
396 1 0.00274126 0.256877 0.5 0.826777 -0.393605
397 1 0.0614796 0.596446 0.5 -0.18779 0.106289
398 1 0.0633145 0.313778 0.5 0.849365 -0.0956274
399 1 0.137882 0.359973 0.5 -0.298627 0.759627
400 1 0.0468566 0.452325 0.5 -0.663615 -0.269191
401 1 0.170079 0.442906 0.5 0.900894 -0.248539
402 1 0.153518 0.557319 0.5 -0.742374 -0.542385
403 1 0.30371 0.515072 0.5 -0.201184 -0.924835
404 1 0.931445 0.317953 0.5 0.652045 -0.699414
405 1 0.177657 0.685801 0.5 -0.463561 -0.835563
406 1 0.21136 0.537812 0.5 -0.0129274 -0.107497
407 1 0.996229 0.493898 0.5 0.643727 -0.360585
408 1 0.103849 0.476039 0.5 -0.0639793 -0.727703
409 1 0.990337 0.388471 0.5 -0.134512 -0.94456
410 1 0.113688 0.52471 0.5 -0.0660445 -0.466375
411 1 0.962602 0.388372 0.5 0.52766 -0.632511
412 1 0.166873 0.523759 0.5 -0.405777 -0.815154
413 1 0.941698 0.344875 0.5 0.699682 -0.518628
414 1 0.122739 0.478063 0.5 -0.55016 0.198974
415 1 0.149643 0.489785 0.5 -0.271971 -0.457037
416 1 0.952925 0.360794 0.5 0.803269 -0.390435
417 1 0.00644808 0.365462 0.5 0.114384 -0.688191
418 1 0.178076 0.494718 0.5 0.208526 -0.199889
419 1 0.215699 0.528859 0.5 0.606424 0.253025
420 1 0.0314124 0.626199 0.5 0.00629482 -0.894609
421 1 0.201751 0.521829 0.5 -0.415356 -0.347069
422 1 0.126057 0.56014 0.5 -0.388705 -0.731649
423 1 0.162745 0.461694 0.5 0.248283 -0.720678
424 1 0.136379 0.56618 0.5 -0.473861 -0.300814
425 1 0.899816 0.349068 0.5 0.30555 -0.45669
426 1 0.0514618 0.52037 0.5 0.140979 -0.850162
427 1 0.0670763 0.684687 0.5 -0.158228 -0.766138
428 1 0.0694991 0.609956 0.5 -0.556411 0.146609
429 1 0.114 0.384883 0.5 -0.524129 -0.269504
430 1 0.0932591 0.529544 0.5 -0.254452 -0.079906
431 1 0.0120143 0.336914 0.5 0.452279 0.00819655
432 1 0.0337996 0.470604 0.5 -0.383769 -0.773972
433 1 0.206748 0.329582 0.5 -0.593201 0.291745
434 1 0.0850606 0.499106 0.5 -0.622543 -0.119459
435 1 0.0798365 0.467617 0.5 -0.387738 0.159502
436 1 0.0648991 0.506125 0.5 -0.252209 -0.883394
437 1 0.246278 0.701354 0.5 -0.265275 0.364419
438 1 0.146387 0.410618 0.5 0.676852 -0.302682
439 1 0.114382 0.327149 0.5 0.58785 0.195936
440 1 0.142437 0.503828 0.5 -0.199462 -0.481253
441 1 0.0720706 0.561867 0.5 -0.341283 -0.538472
442 1 0.867596 0.57908 0.5 0.661847 0.00637392
443 1 0.0965344 0.604708 0.5 -0.163627 -0.473427
444 1 0.0941397 0.291257 0.5 0.601429 -0.677857
445 1 0.113671 0.574385 0.5 -0.72685 -0.372229
446 1 0.110572 0.649822 0.5 -0.591445 -0.402216
447 1 0.974788 0.375246 0.5 0.0400303 -0.853401
448 1 0.11098 0.515513 0.5 0.19252 -0.248322
449 1 0.14481 0.611077 0.5 -0.638942 -0.744827
450 1 0.0330199 0.581446 0.5 0.0672946 -0.201722
451 1 0.891161 0.367161 0.5 0.230122 -0.34187
452 1 0.0897509 0.636213 0.5 -0.129321 -0.161265
453 1 0.150498 0.333015 0.5 0.0562472 0.495535
454 1 0.013464 0.275444 0.5 0.899403 0.111774
455 1 0.0316315 0.330999 0.5 0.348491 -0.0356616
456 1 0.837754 0.393799 0.5 0.778719 -0.415872
457 1 0.103916 0.623894 0.5 -0.361117 -0.784736
458 1 0.0190571 0.380655 0.5 0.20347 -0.437904
459 1 0.0672182 0.524671 0.5 0.296392 -0.630544
460 1 0.104741 0.389818 0.5 -0.851158 0.122987
461 1 0.0136913 0.618247 0.5 0.221066 -0.573062
462 1 0.105449 0.566942 0.5 -0.659272 -0.549643
463 1 0.0861254 0.487363 0.5 -0.871086 -0.0226499
464 1 0.142543 0.435947 0.5 0.478009 -0.65435
465 1 0.0678919 0.322503 0.5 0.85245 0.0531102
466 1 0.174272 0.540142 0.5 -0.659814 -0.622722
467 1 0.992762 0.677292 0.5 -0.471544 0.0170929
468 1 0.073602 0.401099 0.5 -0.477509 -0.707295
469 1 0.101266 0.31757 0.5 0.749898 0.248199
470 1 0.160925 0.329843 0.5 -0.393898 0.382876
471 1 0.135649 0.614437 0.5 -0.649033 -0.702625
472 1 0.163396 0.554334 0.5 -0.698115 -0.602617
473 1 0.210133 0.348597 0.5 -0.406095 0.532894
474 1 0.125915 0.607145 0.5 -0.204847 -0.634097
475 1 0.198303 0.572569 0.5 -0.799805 -0.393223
476 1 0.0379506 0.447769 0.5 -0.891506 0.337851
477 1 0.0782131 0.322162 0.5 0.793363 -0.303249
478 1 0.082667 0.559344 0.5 -0.218253 -0.649038
479 1 0.93257 0.2738 0.5 0.16676 -0.364701
480 1 0.212809 0.753332 0.5 -0.336311 -0.82092
481 1 0.163089 0.660025 0.5 -0.0816401 -0.904439
482 1 0.144899 0.454789 0.5 0.782598 -0.263946
483 1 0.103058 0.526431 0.5 -0.303862 -0.442573
484 1 0.991859 0.56205 0.5 -0.0245855 -0.961736
485 1 0.0638855 0.356665 0.5 -0.58892 -0.260164
486 1 0.0946666 0.501483 0.5 -0.732272 0.164484
487 1 0.249593 0.643424 0.5 -0.321751 -0.31937
488 1 0.253458 0.325807 0.5 -0.720026 -0.248944
489 1 0.0543823 0.459118 0.5 -0.202882 -0.678154
490 1 0.0693765 0.420524 0.5 0.340793 -0.456832
491 1 0.871053 0.344711 0.5 0.722836 -0.357355
492 1 0.158365 0.320433 0.5 0.330955 0.219617
493 1 0.147435 0.363255 0.5 -0.372035 0.54414
494 1 0.894944 0.493255 0.5 0.0161857 -0.443293
495 1 0.125612 0.44786 0.5 0.571384 0.12959
496 1 0.196533 0.361229 0.5 0.498907 -0.38274
497 1 0.0950188 0.384521 0.5 -0.853579 -0.193611
498 1 0.0414159 0.476164 0.5 -0.708496 -0.568163
499 1 0.150531 0.580189 0.5 -0.162719 -0.613653
500 1 0.0278775 0.534152 0.5 -0.457582 -0.524434
501 1 0.040324 0.69318 0.5 0.223292 0.404022
502 1 0.103646 0.290891 0.5 0.140869 -0.578615
503 1 0.11772 0.428464 0.5 0.345072 -0.029891
504 1 0.194084 0.699346 0.5 -0.450249 -0.600337
505 1 0.160212 0.506013 0.5 -0.801093 -0.553091
506 1 0.160071 0.575683 0.5 -0.246866 -0.828088
507 1 0.0870909 0.378603 0.5 -0.382869 -0.511817
508 1 0.198458 0.669023 0.5 -0.0422488 -0.920139
509 1 0.11046 0.336393 0.5 0.768382 0.0909833
510 1 0.0748521 0.428603 0.5 0.611892 0.137432
511 1 0.0406438 0.485507 0.5 -0.585772 -0.554421
512 1 0.998654 0.568489 0.5 -0.224756 -0.96566
513 1 0.02578 0.340638 0.5 0.33451 0.209171
514 1 0.951497 0.611012 0.5 0.0272846 -0.923596
515 1 0.120645 0.531222 0.5 -0.238121 -0.904839
516 1 0.0514624 0.482425 0.5 -0.370905 -0.585384
517 1 0.965199 0.741597 0.5 -0.0941625 -0.819425
518 1 0.201777 0.659783 0.5 0.214191 -0.860892
519 1 0.0942162 0.481146 0.5 -0.85685 -0.0597607
520 1 0.0979508 0.56023 0.5 -0.633747 -0.49417
521 1 0.0741111 0.330386 0.5 0.822789 0.0437024
522 1 0.972486 0.337856 0.5 0.738356 -0.0750339
523 1 0.0794281 0.41843 0.5 0.268365 -0.273734
524 1 0.0954153 0.374135 0.5 -0.80033 -0.251003
525 1 0.159747 0.471748 0.5 -0.236077 -0.54517
526 1 0.19999 0.611857 0.5 -0.288849 -0.814878
527 1 0.0458144 0.571306 0.5 0.381656 -0.15851
528 1 0.0519708 0.563178 0.5 -0.0377585 0.0199986
529 1 0.150372 0.51054 0.5 -0.715783 -0.632577
530 1 0.976909 0.310792 0.5 0.222785 -0.114776
531 1 0.0945805 0.491966 0.5 -0.892861 0.315915
532 1 0.203288 0.415518 0.5 -0.774108 0.463505
533 1 0.242992 0.583437 0.5 0.363251 -0.104572
534 1 0.207287 0.577097 0.5 -0.362654 0.00280248
535 1 0.987523 0.44936 0.5 0.00583102 -0.411265
536 1 0.0946601 0.451305 0.5 0.606654 0.12601
537 1 0.105076 0.430005 0.5 0.360964 -0.84147
538 1 0.215855 0.548049 0.5 0.349099 -0.462592
539 1 0.168161 0.511511 0.5 -0.3571 -0.707535
540 1 0.0610746 0.61591 0.5 -0.836949 -0.134003
541 1 0.244568 0.616473 0.5 0.0139649 -0.625616
542 1 0.963571 0.598566 0.5 -0.182777 -0.75715
543 1 0.937103 0.534554 0.5 0.314199 -0.885782
544 1 0.15905 0.408808 0.5 0.451235 -0.661824
545 1 0.141777 0.419074 0.5 0.881118 -0.318129
546 1 0.133299 0.506989 0.5 -0.539146 -0.351005
547 1 0.941881 0.584241 0.5 -0.195713 -0.507503
548 1 0.13022 0.597268 0.5 -0.159468 -0.761276
549 1 0.134628 0.473125 0.5 0.149961 -0.751461
550 1 0.27196 0.74313 0.5 -0.481423 -0.552786
551 1 0.269362 0.497805 0.5 -0.372557 -0.563757
552 1 0.181017 0.472196 0.5 -0.395019 0.4884
553 1 0.0165176 0.465791 0.5 0.435108 -0.675541
554 1 0.110314 0.533417 0.5 -0.0301454 -0.865465
555 1 0.0609336 0.477414 0.5 -0.318032 -0.509233
556 1 0.0545961 0.351072 0.5 -0.24698 -0.779785
557 1 0.137474 0.464091 0.5 0.644688 -0.0240615
558 1 0.09619 0.594721 0.5 -0.11975 -0.0440397
559 1 0.179699 0.44156 0.5 0.542003 0.0590002
560 1 0.0514261 0.332741 0.5 0.807459 -0.322486
561 1 0.0372607 0.544931 0.5 -0.0973075 -0.448933
562 1 0.0701098 0.571494 0.5 -0.0555085 -0.0572067
563 1 0.103061 0.496743 0.5 -0.429304 0.123571
564 1 0.0759139 0.503656 0.5 -0.458887 -0.590687
565 1 0.0737325 0.541648 0.5 -0.938941 -0.0537736
566 1 0.0044565 0.375386 0.5 0.0502817 -0.749815
567 1 0.028169 0.635267 0.5 -0.0971959 -0.924572
568 1 0.0405122 0.410876 0.5 0.867088 0.236528
569 1 0.0770317 0.593171 0.5 0.050865 0.485705
570 1 0.161663 0.389867 0.5 -0.513547 0.229788
571 1 0.124386 0.502118 0.5 -0.574209 0.0763113
572 1 0.926726 0.355388 0.5 0.849347 -0.318649
573 1 0.124008 0.375184 0.5 0.417714 0.846701
574 1 0.976861 0.276593 0.5 0.533982 0.216184
575 1 0.0143597 0.320483 0.5 0.653766 0.429591
576 1 0.950766 0.637812 0.5 0.451377 -0.549291
577 1 0.172223 0.407246 0.5 0.314419 0.598744
578 1 0.0849053 0.448836 0.5 0.392294 0.568577
579 1 0.0681325 0.588128 0.5 0.219969 0.55897
580 1 0.0755589 0.38979 0.5 -0.41251 -0.756868
581 1 0.19611 0.502107 0.5 0.138355 -0.481168
582 1 0.186242 0.633884 0.5 -0.522638 -0.52307
583 1 0.961095 0.312645 0.5 0.109899 -0.153022
584 1 0.0331129 0.3218 0.5 0.418138 0.101104
585 1 0.0789676 0.441129 0.5 0.27292 0.314168
586 1 0.122331 0.590431 0.5 -0.330985 -0.599438
587 1 0.923163 0.337438 0.5 0.632232 -0.5709
588 1 0.170506 0.46947 0.5 0 0
589 1 0.906562 0.5128 0.5 0.278993 -0.388293
590 1 0.0896108 0.33769 0.5 0.650275 -0.742595
591 1 0.190825 0.556803 0.5 -0.697329 -0.337658
592 1 0.011782 0.412872 0.5 -0.0673845 0.401518
593 1 0.233162 0.513535 0.5 -0.781484 0.243345
594 1 0.276 0.551826 0.5 0.300659 -0.328694
595 1 0.996327 0.626428 0.5 0.133536 -0.772922
596 1 0.225368 0.444659 0.5 0.0575606 0.0878215
597 1 0.16764 0.582443 0.5 -0.225962 -0.827886
598 1 0.981794 0.335189 0.5 0.594359 0.154251
599 1 0.181854 0.547017 0.5 -0.243869 -0.661806
600 1 0.120581 0.419475 0.5 0.693384 -0.387218
601 1 0.0719449 0.362276 0.5 -0.43688 -0.554956
602 1 0.210498 0.607944 0.5 -0.288118 -0.85944
603 1 0.216245 0.448132 0.5 -0.104305 -0.0545005
604 1 0.193867 0.312299 0.5 -0.0648343 0.243639
605 1 0.188317 0.672008 0.5 -0.274414 -0.883311
606 1 0.0680489 0.338156 0.5 0.581168 -0.141823
607 1 0.0977304 0.42364 0.5 0.46717 -0.323806
608 1 0.0566496 0.321864 0.5 0.765755 -0.0892365
609 1 0.17195 0.560035 0.5 -0.24259 -0.281684
610 1 0.0866522 0.59532 0.5 0.21889 0.184924
611 1 0.270936 0.73375 0.5 0.0634291 -0.419874
612 1 0.0934795 0.510994 0.5 -0.202918 -0.414816
613 1 0.136747 0.427461 0.5 0.66656 -0.480348
614 1 0.114932 0.446533 0.5 0.543677 0.215312
615 1 0.992662 0.416008 0.5 -0.525874 -0.729974
616 1 0.123545 0.511538 0.5 -0.788252 -0.519224
617 1 0.946308 0.335985 0.5 -0.0216153 -0.553769
618 1 0.957143 0.369559 0.5 0.393635 -0.437601
619 1 0.105247 0.578482 0.5 -0.858064 -0.313705
620 1 0.15935 0.632861 0.5 -0.700486 -0.654863
621 1 0.0966178 0.615013 0.5 -0.252903 -0.694703
622 1 0.113112 0.630581 0.5 -0.375728 -0.641797
623 1 0.342139 0.608657 0.5 -0.236143 -0.534226
624 1 0.10896 0.544121 0.5 -0.215985 -0.818961
625 1 0.131386 0.586719 0.5 -0.827262 -0.36697
626 1 0.0633056 0.535286 0.5 -0.266783 -0.352085
627 1 0.0241449 0.554434 0.5 0.0701567 0.000998556
628 1 0.0507053 0.629119 0.5 0.17233 -0.778618