ITEM: TIMESTEP
0
ITEM: NUMBER OF ATOMS
9945
ITEM: BOX BOUNDS pp pp pp
-5.8359999999999999e+01 5.8359999999999999e+01
-5.8359999999999999e+01 5.8359999999999999e+01
-5.0000000000000000e-01 5.0000000000000000e-01
ITEM: ATOMS id type xs ys zs c_002[1] c_002[2]
1 1 0.11113 0.923112 0.5 0.501648 0.800558
2 1 0.0866153 0.172032 0.5 -0.264735 0.431958
3 1 0.0244506 0.109673 0.5 -0.0357783 -0.574246
4 1 0.843231 0.962033 0.5 -0.658197 0.628703
5 1 0.934297 0.941275 0.5 0.035716 0.378759
6 1 0.924884 0.99069 0.5 -0.255611 0.30383
7 1 0.829657 0.724613 0.5 0.182692 0.365572
8 1 0.112826 0.724471 0.5 -0.191543 -0.553806
9 1 0.87337 0.825097 0.5 -0.763611 0.302487
10 1 0.0858772 0.122808 0.5 -0.344168 0.439414
11 1 0.834227 0.810614 0.5 -0.470913 0.0108609
12 1 0.244332 0.37137 0.5 0.236124 -0.1975
13 1 0.904571 0.0378937 0.5 -0.38783 -0.403959
14 1 0.0356171 0.106079 0.5 -0.406262 -0.863198
15 1 0.192522 0.997743 0.5 -0.929649 -0.257002
16 1 0.988717 0.129504 0.5 -0.12268 -0.441683
17 1 0.903204 0.776998 0.5 0.278548 0.602083
18 1 0.808456 0.575548 0.5 -0.684416 -0.396358
19 1 0.906479 0.788307 0.5 0.671338 -0.0181015
20 1 0.117444 0.914831 0.5 0.152623 0.829801
21 1 0.0765234 0.924877 0.5 -0.165744 0.341839
22 1 0.0469506 0.778196 0.5 -0.402138 0.245218
23 1 0.0222231 0.939106 0.5 0.572456 0.706671
24 1 0.903476 0.0284273 0.5 -0.887866 0.353619
25 1 0.086721 0.830335 0.5 -0.0865808 0.468441
26 1 0.92616 0.853577 0.5 -0.299054 0.739354
27 1 0.0816228 0.847243 0.5 0.00673033 0.601832
28 1 0.0756972 0.37997 0.5 0.604656 0.476458
29 1 0.0505699 0.936081 0.5 0.450688 0.183338
30 1 0.673801 0.55263 0.5 -0.739007 0.205453
31 1 0.00895409 0.8348 0.5 -0.0411982 0.877545
32 1 0.120732 0.729927 0.5 -0.581962 -0.454425
33 1 0.943104 0.946399 0.5 -0.241812 0.25581
34 1 0.0364716 0.161802 0.5 -0.555774 0.0893796
35 1 0.10094 0.0211728 0.5 -0.0975462 -0.802205
36 1 0.975357 0.0248768 0.5 0.083611 -0.53314
37 1 0.150369 0.0520355 0.5 -0.422484 0.0934174
38 1 0.732468 0.0181 0.5 0.120857 0.751391
39 1 0.877085 0.945045 0.5 0.0254395 0.457357
40 1 0.0285235 0.931231 0.5 0.396399 0.857371
41 1 0.910084 0.91714 0.5 -0.232492 0.715578
42 1 0.0392228 0.182031 0.5 -0.255701 0.552545
43 1 0.238254 0.257232 0.5 0.0500449 -0.41181
44 1 0.0274553 0.830007 0.5 -0.661852 0.532923
45 1 0.632662 0.225723 0.5 -0.764131 -0.273704
46 1 0.796814 0.692945 0.5 -0.343154 0.66232
47 1 0.00113203 0.973714 0.5 0.437682 0.399671
48 1 0.110972 0.108992 0.5 -0.250456 0.346111
49 1 0.147709 0.630324 0.5 -0.163315 -0.288968
50 1 0.817048 0.124734 0.5 0 0
51 1 0.75811 0.100154 0.5 -0.230665 -0.868362
52 1 0.01354 0.193925 0.5 0.0967747 0.242733
53 1 0.00112097 0.983543 0.5 0.18028 0.536799
54 1 0.855955 0.939134 0.5 -0.381769 0.723529
55 1 0.825241 0.964888 0.5 -0.109377 0.972192
56 1 0.0509016 0.882458 0.5 0.0356125 0.662138
57 1 0.961253 0.0880046 0.5 0.260952 -0.897977
58 1 0.032528 0.912063 0.5 0.356749 0.833754
59 1 0.0550332 0.791009 0.5 -0.114503 0.264849
60 1 0.665893 0.126638 0.5 -0.557119 -0.765821
61 1 0.0287401 0.0280264 0.5 -0.292569 -0.61728
62 1 0.236761 0.0493927 0.5 -0.304824 0.622888
63 1 0.165564 0.158174 0.5 -0.761611 0.518999
64 1 0.102607 0.114418 0.5 -0.406828 0.679677
65 1 0.184963 0.982169 0.5 -0.918969 -0.158534
66 1 0.0212863 0.0699935 0.5 -0.641042 -0.640502
67 1 0.895202 0.8898 0.5 -0.526158 0.732085
68 1 0.841706 0.951456 0.5 -0.356764 0.785781
69 1 0.0053035 0.761366 0.5 0.159004 -0.759493
70 1 0.904319 0.936297 0.5 -0.224524 0.506258
71 1 0.83227 0.137687 0.5 -0.76191 -0.464438
72 1 0.124303 0.878057 0.5 0.106887 0.88535
73 1 0.21975 0.287594 0.5 0.385957 0.718497
74 1 0.862671 0.93208 0.5 0.21144 -0.101636
75 1 0.927267 0.0971824 0.5 -0.199134 -0.310796
76 1 0.12039 0.952608 0.5 0.619074 0.545922
77 1 0.973434 0.959916 0.5 -0.364697 0.296615
78 1 0.794381 0.683742 0.5 0.00904221 0.409002
79 1 0.857656 0.948545 0.5 -0.334796 0.853171
80 1 0.903948 0.894138 0.5 -0.0791568 0.665198
81 1 0.881356 0.290002 0.5 -0.650065 -0.456839
82 1 0.722683 0.137862 0.5 -0.264149 -0.328172
83 1 0.782837 0.766909 0.5 -0.459198 0.0594883
84 1 0.921062 0.771716 0.5 0.60756 0.601245
85 1 0.0714722 0.146133 0.5 -0.263861 0.408012
86 1 0.0692444 0.94504 0.5 0.657291 -0.0255436
87 1 0.0458878 0.726248 0.5 0.0923913 0.523528
88 1 0.0190251 0.929618 0.5 0.581438 0.712968
89 1 0.0929986 0.851081 0.5 -0.0851346 0.646557
90 1 0.927425 0.030258 0.5 -0.097355 -0.887334
91 1 0.996725 0.573987 0.5 0.428503 -0.354755
92 1 0.0959115 0.969804 0.5 0.186707 0.230099
93 1 0.00158727 0.728809 0.5 -0.181157 0.561893
94 1 0.649664 0.861149 0.5 -0.15236 -0.298495
95 1 0.670724 0.719647 0.5 -0.504433 0.0800369
96 1 0.864844 0.0143038 0.5 0.438204 0.495421
97 1 0.922443 0.0136163 0.5 -0.296847 0.159474
98 1 0.827496 0.753463 0.5 0.121576 0.754408
99 1 0.926382 0.863911 0.5 -0.385367 0.708421
100 1 0.14911 0.203757 0.5 0.0954585 0.196179
101 1 0.948037 0.0237795 0.5 0.143221 -0.794643
102 1 0.805122 0.649828 0.5 0.0465479 0.389428
103 1 0.0135808 0.599131 0.5 -0.0243292 -0.814129
104 1 0.81708 0.972294 0.5 -0.237273 0.810665
105 1 0.905723 0.242105 0.5 0.0109517 -0.0801646
106 1 0.858208 0.727577 0.5 0.536952 -0.0579153
107 1 0.803626 0.986191 0.5 -0.149315 0.552231
108 1 0.149607 0.0133335 0.5 -0.217309 -0.0718954
109 1 0.279016 0.884026 0.5 -0.839967 -0.144902
110 1 0.989678 0.0906112 0.5 -0.0231006 -0.805218
111 1 0.184432 0.822049 0.5 -0.725616 0.107277
112 1 0.892857 0.929165 0.5 -0.712882 0.407001
113 1 0.124748 0.133877 0.5 -0.463093 0.676127
114 1 0.94652 0.10033 0.5 0.63051 -0.702022
115 1 0.207716 0.12643 0.5 -0.669347 0.623416
116 1 0.901326 0.75119 0.5 0.742325 0.556461
117 1 0.944606 0.0828507 0.5 -0.402758 -0.427189
118 1 0.752781 0.870829 0.5 -0.125631 0.869024
119 1 0.950743 0.0906031 0.5 0.276795 -0.876518
120 1 0.0322185 0.188883 0.5 -0.423726 0.812578
121 1 0.892415 0.878711 0.5 -0.1723 0.636362
122 1 0.0819002 0.0167342 0.5 0.603134 -0.686963
123 1 0.969935 0.122983 0.5 0.21814 -0.747483
124 1 0.164483 0.810196 0.5 -0.35136 0.659759
125 1 0.837493 0.0805609 0.5 -0.439736 -0.251702
126 1 0.135189 0.654456 0.5 -0.577185 -0.671083
127 1 0.222672 0.719626 0.5 -0.632352 -0.408354
128 1 0.91648 0.744758 0.5 0.899025 0.0157065
129 1 0.943234 0.110465 0.5 -0.00961826 -0.854069
130 1 0.0178934 0.164824 0.5 0.0899719 0.95212
131 1 0.870132 0.959845 0.5 -0.0502897 0.672998
132 1 0.991081 0.727438 0.5 0.366401 -0.0757144
133 1 0.122942 0.0358415 0.5 0.882898 -0.378832
134 1 0.990249 0.0809083 0.5 -0.0252366 -0.7419
135 1 0.829501 0.0350139 0.5 -0.420792 0.0817751
136 1 0.129073 0.996906 0.5 0.352186 -0.870386
137 1 0.859056 0.995739 0.5 -0.217515 0.863781
138 1 0.822601 0.151716 0.5 -0.357066 -0.524577
139 1 0.854445 0.658635 0.5 -0.515067 0.8304
140 1 0.0238879 0.119441 0.5 0.00409331 -0.0748156
141 1 0.820019 0.0304235 0.5 -0.0667237 0.441818
142 1 0.298774 0.762455 0.5 0.706208 0.32822
143 1 0.994826 0.185339 0.5 -0.187238 -0.00230565
144 1 0.96023 0.933545 0.5 -0.471258 0.694139
145 1 0.792274 0.759818 0.5 -0.475736 0.673661
146 1 0.871763 0.724852 0.5 0.0637722 0.264402
147 1 0.918218 0.0715083 0.5 0.713361 -0.479489
148 1 0.959254 0.884859 0.5 -0.951752 0.205671
149 1 0.911033 0.9558 0.5 0.604273 0.148272
150 1 0.119153 0.783141 0.5 0.112639 0.862974
151 1 0.16979 0.70077 0.5 -0.15646 -0.941621
152 1 0.932299 0.983902 0.5 -0.0286616 0.465668
153 1 0.227852 0.92984 0.5 -0.519299 0.0380332
154 1 0.101936 0.981058 0.5 0.330434 0.275239
155 1 0.979963 0.636782 0.5 0.00622996 0.744635
156 1 0.155889 0.942933 0.5 -0.520093 0.668337
157 1 0.995644 0.945188 0.5 0.604097 0.444856
158 1 0.843998 0.0962983 0.5 0.0234683 -0.795544
159 1 0.740217 0.692645 0.5 -0.634534 0.413288
160 1 0.629718 0.759254 0.5 -0.223014 -0.805934
161 1 0.91203 0.886843 0.5 -0.427282 0.851836
162 1 0.190533 0.139644 0.5 -0.938101 0.232783
163 1 0.962977 0.848276 0.5 -0.231864 0.65019
164 1 0.00398278 0.178849 0.5 -0.163184 0.854076
165 1 0.947356 0.32772 0.5 -0.858701 0.195871
166 1 0.848256 0.944464 0.5 -0.495803 0.767018
167 1 0.0857257 0.937999 0.5 0.188184 0.701278
168 1 0.923397 0.797701 0.5 0.893566 0.350228
169 1 0.131298 0.986423 0.5 0.163774 -0.900547
170 1 0.739874 0.752504 0.5 0.141128 0.389545
171 1 0.0817081 0.78529 0.5 0.693309 0.253202
172 1 0.0787062 0.945988 0.5 0.688111 0.485816
173 1 0.0634432 0.155618 0.5 -0.401938 0.798485
174 1 0.00639494 0.964269 0.5 0.866642 0.108074
175 1 0.980248 0.24935 0.5 -0.878851 -0.00785823
176 1 0.759555 0.701593 0.5 -0.558574 0.628429
177 1 0.870498 0.853369 0.5 -0.331921 0.624631
178 1 0.0216073 0.0215545 0.5 0.350312 -0.715581
179 1 0.819941 0.835958 0.5 -0.582448 0.669899
180 1 0.990751 0.90658 0.5 -0.342297 0.869218
181 1 0.804933 0.946526 0.5 -0.314059 0.806709
182 1 0.100365 0.788649 0.5 0.32135 0.413992
183 1 0.0659407 0.963148 0.5 -0.0712504 0.136889
184 1 0.0466297 0.89857 0.5 0.0738685 0.925272
185 1 0.797595 0.0868511 0.5 -0.227687 -0.520499
186 1 0.874611 0.921234 0.5 -0.310235 0.0127335
187 1 0.958683 0.873898 0.5 -0.581103 0.267977
188 1 0.116341 0.773737 0.5 0.0562274 0.738484
189 1 0.0316926 0.941269 0.5 0.724154 0.437184
190 1 0.957898 0.144523 0.5 -0.474503 -0.30541
191 1 0.700755 0.145376 0.5 -0.11315 0.034972
192 1 0.948923 0.223644 0.5 -0.219366 -0.106652
193 1 0.0604978 0.935837 0.5 0.428996 -0.188562
194 1 0.0719468 0.974035 0.5 0.897225 0.281901
195 1 0.935 0.222302 0.5 0.0353456 -0.184229
196 1 0.0199662 0.0801147 0.5 -0.765869 -0.184392
197 1 0.29095 0.621387 0.5 -0.72708 0.263446
198 1 0.99294 0.935824 0.5 0.563308 0.376476
199 1 0.0943947 0.677967 0.5 -0.132007 -0.9445
200 1 0.134831 0.838126 0.5 0.636852 0.525025
201 1 0.0549612 0.994603 0.5 0.150228 -0.362231
202 1 0.946507 0.0625625 0.5 -0.178603 -0.871834
203 1 0.029915 0.179453 0.5 -0.342286 0.799821
204 1 0.914733 0.937889 0.5 0.428278 0.825953
205 1 0.12735 0.889197 0.5 -0.0284397 0.711067
206 1 0.783699 0.154239 0.5 -0.188766 -0.46877
207 1 0.129574 0.0442014 0.5 0.356407 0.0797278
208 1 0.930333 0.046544 0.5 -0.0671824 -0.640101
209 1 0.0487307 0.870481 0.5 -0.24485 0.697075
210 1 0.110104 0.0178585 0.5 0.238476 -0.543531
211 1 0.9647 0.105845 0.5 0.301547 -0.931288
212 1 0.952191 0.0424918 0.5 0.0823253 -0.978716
213 1 0.0966211 0.129307 0.5 -0.665936 0.317294
214 1 0.908094 0.905886 0.5 0.241204 0.67609
215 1 0.994696 0.175969 0.5 0.197773 0.266677
216 1 0.900392 0.998159 0.5 -0.239056 0.4776
217 1 0.153096 0.961739 0.5 0.0717118 0.786171
218 1 0.848417 0.628515 0.5 -0.573708 0.763648
219 1 0.969428 0.225529 0.5 -0.613282 -0.046186
220 1 0.981373 0.00441061 0.5 0.283564 -0.373363
221 1 0.952287 0.166998 0.5 0.0324221 -0.508844
222 1 0.236984 0.000784111 0.5 -0.105674 -0.742415
223 1 0.903922 0.189967 0.5 -0.135391 -0.56892
224 1 0.0103948 0.171667 0.5 -0.0813808 0.951152
225 1 0.930451 0.0189468 0.5 -0.310313 -0.671228
226 1 0.876349 0.0753291 0.5 0.149884 -0.647781
227 1 0.0305737 0.973551 0.5 0.105736 -0.0359729
228 1 0.879271 0.706333 0.5 -0.0490556 0.945806
229 1 0.0448038 0.691192 0.5 0.0269683 -0.482109
230 1 0.12299 0.793212 0.5 0.298968 0.80346
231 1 0.0477394 0.736756 0.5 -0.2082 0.663426
232 1 0.0798862 0.650995 0.5 -0.354319 -0.423383
233 1 0.927113 0.317811 0.5 -0.548071 0.280609
234 1 0.689942 0.881126 0.5 0.450584 -0.0279741
235 1 0.0335004 0.019916 0.5 0.0723404 0.0763608
236 1 0.858425 0.986124 0.5 -0.580567 0.61546
237 1 0.271308 0.913099 0.5 -0.978218 0.111233
238 1 0.906306 0.989632 0.5 -0.22604 0.550377
239 1 0.889067 0.906522 0.5 -0.393871 0.471791
240 1 0.929531 0.826282 0.5 -0.688104 0.457092
241 1 0.058905 0.18224 0.5 -0.761567 0.534591
242 1 0.130777 0.927889 0.5 0.272674 0.711067
243 1 0.0770888 0.966046 0.5 0.626218 0.109609
244 1 0.990638 0.972784 0.5 -0.0173493 0.630759
245 1 0.942852 0.722601 0.5 -0.0900069 0.514803
246 1 0.847494 0.83499 0.5 -0.590284 0.721899
247 1 0.998496 0.89826 0.5 -0.438599 0.550463
248 1 0.763135 0.774121 0.5 -0.59722 0.246425
249 1 0.00525656 0.0143091 0.5 0.472688 -0.0969948
250 1 0.144178 0.14155 0.5 -0.394628 0.794625
251 1 0.912791 0.574665 0.5 -0.0568623 0.630033
252 1 0.00547676 0.918868 0.5 0.270736 0.597884
253 1 0.901888 0.923739 0.5 -0.785887 0.444261
254 1 0.0424991 0.0233977 0.5 -0.0244963 -0.444143
255 1 0.953564 0.913193 0.5 -0.415437 0.634113
256 1 0.0674872 0.845332 0.5 -0.0445546 0.404218
257 1 0.946648 0.177279 0.5 0.0541654 -0.628973
258 1 0.965107 0.993059 0.5 -0.359708 0.463596
259 1 0.149443 0.171324 0.5 -0.699242 0.530766
260 1 0.834086 0.820535 0.5 -0.490962 0.429733
261 1 0.0479223 0.0311019 0.5 0.525761 -0.711367
262 1 0.973926 0.9979 0.5 -0.352199 -0.393694
263 1 0.986102 0.818099 0.5 -0.866767 0.345658
264 1 0.9674 0.0959097 0.5 0.300321 -0.916502
265 1 0.713464 0.015879 0.5 -0.181882 0.663622
266 1 0.0012222 0.115415 0.5 -0.00495861 -0.287724
267 1 0.130138 0.0160526 0.5 0.641646 -0.00212466
268 1 0.995138 0.351295 0.5 -0.769072 0.0378038
269 1 0.873069 0.0969015 0.5 -0.293098 -0.64021
270 1 0.1278 0.737181 0.5 -0.514522 -0.402223
271 1 0.914914 0.964796 0.5 -0.0660954 -0.138137
272 1 0.121454 0.987439 0.5 -0.193111 -0.615694
273 1 0.71024 0.880885 0.5 0.579738 -0.0523631
274 1 0.140901 0.87383 0.5 -0.268738 0.523888
275 1 0.895683 0.951433 0.5 -0.33035 0.190811
276 1 0.944458 0.159519 0.5 -0.16063 -0.523273
277 1 0.914487 0.984393 0.5 -0.855521 0.0990581
278 1 0.950296 0.128551 0.5 -0.590752 -0.727809
279 1 0.910807 0.022785 0.5 -0.367115 0.340267
280 1 0.190276 0.753668 0.5 -0.619525 -0.76315
281 1 0.696784 0.891597 0.5 0.709109 -0.262449
282 1 0.674411 0.938933 0.5 0.128761 -0.0791889
283 1 0.181205 0.0143909 0.5 0.4756 -0.313772
284 1 0.899362 0.768138 0.5 0.52937 0.786689
285 1 0.211108 0.611367 0.5 0.681005 0.417233
286 1 0.735066 0.779366 0.5 -0.660622 -0.361955
287 1 0.036234 0.172239 0.5 -0.485935 0.193915
288 1 0.0644605 0.991559 0.5 0.243669 -0.632047
289 1 0.843825 0.011716 0.5 -0.475963 0.684462
290 1 0.0338731 0.763494 0.5 -0.233601 0.425769
291 1 0.985067 0.138503 0.5 0.467093 -0.630541
292 1 0.132822 0.624673 0.5 0.137173 -0.746576
293 1 0.100918 0.103526 0.5 -0.739982 0.276995
294 1 0.0279121 0.74526 0.5 -0.249984 -0.0670924
295 1 0.104017 0.9331 0.5 0.172861 0.57228
296 1 0.0819846 0.0831569 0.5 -0.82851 0.0610553
297 1 0.032385 0.860979 0.5 -0.429467 0.323825
298 1 0.0655695 0.065706 0.5 0.192972 0.0577074
299 1 0.864443 0.807484 0.5 0.0495414 -0.528078
300 1 0.998669 0.888461 0.5 -0.43634 0.634001
301 1 0.0316919 0.0852099 0.5 0.0868668 0.576535
302 1 0.950861 0.810107 0.5 0.355503 -0.211039
303 1 0.894939 0.0240235 0.5 -0.578246 0.634457
304 1 0.963434 0.944472 0.5 -0.681342 0.384149
305 1 0.721945 0.813461 0.5 -0.807202 -0.444285
306 1 0.996616 0.0203684 0.5 -0.166074 0.0605052
307 1 0.983902 0.991871 0.5 -0.62899 0.154609
308 1 0.922903 0.16738 0.5 -0.262679 0.0271586
309 1 0.0614948 0.0193686 0.5 0.688616 -0.608736
310 1 0.0874989 0.963788 0.5 0.0779768 -0.113553
311 1 0.96873 0.00725273 0.5 -0.318973 -0.540928
312 1 0.00400809 0.12986 0.5 -0.07683 -0.345681
313 1 0.029207 0.67868 0.5 -0.229599 -0.704693
314 1 0.859711 0.958513 0.5 0.141933 0.871504
315 1 0.876824 0.371342 0.5 -0.481767 0.466515
316 1 0.0447464 0.113681 0.5 -0.052473 -0.471977
317 1 0.00926442 0.285657 0.5 -0.948965 0.170131
318 1 0.0717124 0.231358 0.5 -0.586311 0.744278
319 1 0.0332607 0.517085 0.5 0.239533 0.219337
320 1 0.890577 0.308266 0.5 -0.522552 0.583504
321 1 0.387018 0.318564 0.5 0.32285 -0.720258
322 1 0.118691 0.148594 0.5 -0.232984 -0.169194
323 1 0.0573013 0.719154 0.5 -0.60591 -0.52379
324 1 0.920494 0.919333 0.5 -0.123946 0.846152
325 1 0.945299 0.283735 0.5 -0.823913 0.138392
326 1 0.197727 0.223653 0.5 0.849716 -0.292566
327 1 0.0271895 0.362366 0.5 0.0646645 0.504851
328 1 0.109639 0.0865922 0.5 -0.55277 0.733715
329 1 0.10239 0.481925 0.5 0.467602 0.740848
330 1 0.958124 0.362235 0.5 -0.708877 0.266624
331 1 0.0237626 0.453932 0.5 0.0680887 0.412369
332 1 0.871217 0.0455633 0.5 0.220466 0.34939
333 1 0.210813 0.25271 0.5 0.684199 0.196304
334 1 0.835978 0.211221 0.5 -0.0383802 -0.496133
335 1 0.0802575 0.1967 0.5 0.409825 0.1773
336 1 0.918233 0.136504 0.5 -0.405184 -0.259047
337 1 0.18722 0.243708 0.5 -0.227936 0.0203311
338 1 0.478497 0.287805 0.5 -0.556227 -0.299996
339 1 0.323269 0.384553 0.5 0.186521 -0.0399748
340 1 0.317812 0.264632 0.5 0.890274 -0.186245
341 1 0.166422 0.391552 0.5 0.176662 -0.261226
342 1 0.85536 0.20554 0.5 -0.351714 -0.911073
343 1 0.317056 0.072107 0.5 0.43199 0.681479
344 1 0.218933 0.33952 0.5 0.35695 0.589649
345 1 0.0168045 0.12656 0.5 0.432538 0.247392
346 1 0.0278581 0.28144 0.5 -0.490333 -0.0422794
347 1 0.153665 0.212501 0.5 -0.0320029 0.73158
348 1 0.0523286 0.358228 0.5 0.201952 0.647438
349 1 0.119308 0.315178 0.5 0.653767 0.475594
350 1 0.0323085 0.983905 0.5 0.0620873 -0.0147925
351 1 0.110806 0.502476 0.5 0.517529 0.748061
352 1 0.960952 0.200239 0.5 -0.317189 -0.103277
353 1 0.0747008 0.0604532 0.5 0.398957 -0.404992
354 1 0.0825399 0.370923 0.5 0.152393 0.189384
355 1 0.11355 0.256829 0.5 -0.18753 0.751586
356 1 0.808977 0.799789 0.5 0.166707 -0.561827
357 1 0.854106 0.424095 0.5 -0.768942 0.218739
358 1 0.416936 0.231326 0.5 0.0348973 -0.789619
359 1 0.753843 0.778288 0.5 -0.911413 -0.104719
360 1 0.0927061 0.163497 0.5 -0.166167 0.390912
361 1 0.0965456 0.326839 0.5 0.559981 0.00258316
362 1 0.141266 0.256094 0.5 -0.505457 0.254671
363 1 0.119382 0.236458 0.5 -0.414452 0.383715
364 1 0.0599056 0.122381 0.5 0.0947983 0.47761
365 1 0.297214 0.175261 0.5 0.621181 0.117814
366 1 0.898226 0.14326 0.5 -0.0545052 -0.672273
367 1 0.149904 0.0329508 0.5 -0.0974994 0.681238
368 1 0.87724 0.189386 0.5 -0.257014 -0.803859
369 1 0.990649 0.00629212 0.5 -0.0132036 -0.198775
370 1 0.398389 0.278593 0.5 0.321667 -0.771315
371 1 0.18502 0.226499 0.5 0.354767 0.042664
372 1 0.925033 0.194834 0.5 0.851525 -0.289095
373 1 0.323747 0.2553 0.5 0.155867 -0.289977
374 1 0.853529 0.214998 0.5 -0.406473 -0.850126
375 1 0.122456 0.190574 0.5 -0.521507 0.75247
376 1 0.928612 0.186008 0.5 0.311259 -0.29803
377 1 0.196508 0.585401 0.5 -0.477024 -0.199841
378 1 0.191834 0.345389 0.5 0.612059 0.58666
379 1 0.841215 0.179529 0.5 -0.0796018 -0.345265
380 1 0.847157 0.199019 0.5 -0.463758 -0.852933
381 1 0.306209 0.324293 0.5 0.2796 -0.452011
382 1 0.740209 0.0957846 0.5 -0.273004 -0.830473
383 1 0.0978842 0.292294 0.5 0.165235 0.21602
384 1 0.211335 0.321944 0.5 0.0248687 0.888248
385 1 0.956655 0.0587998 0.5 0.0907063 -0.902125
386 1 0.0840915 0.292487 0.5 0.570058 -0.255368
387 1 0.972261 0.178342 0.5 0.30612 0.563766
388 1 0.924997 0.153979 0.5 -0.422132 -0.868891
389 1 0.247572 0.462253 0.5 -0.186285 0.583599
390 1 0.975028 0.342311 0.5 -0.382833 0.746067
391 1 0.772483 0.209823 0.5 -0.164631 0.246957
392 1 0.0202567 0.311023 0.5 -0.639216 0.475841
393 1 0.0940487 0.376421 0.5 -0.282184 0.46938
394 1 0.308575 0.140357 0.5 0.0781924 0.777296
395 1 0.0550989 0.265312 0.5 -0.646568 -0.491012
396 1 0.759169 0.176123 0.5 -0.000816028 -0.830973
397 1 0.238855 0.388991 0.5 -0.231169 -0.0369986
398 1 0.0476662 0.0794495 0.5 -0.565866 -0.07971
399 1 0.0912951 0.274672 0.5 -0.564588 0.36751
400 1 0.815682 0.227391 0.5 0.124573 -0.109051
401 1 0.206029 0.261392 0.5 0.824227 0.187335
402 1 0.0611302 0.331421 0.5 0.48476 0.523917
403 1 0.0727943 0.203982 0.5 0.382406 0.383151
404 1 0.0470144 0.393901 0.5 0.829894 0.0725441
405 1 0.0982487 0.221046 0.5 -0.443393 0.874827
406 1 0.258922 0.319128 0.5 0.158654 0.246393
407 1 0.960944 0.250654 0.5 -0.929508 0.253433
408 1 0.876697 0.981732 0.5 -0.418943 0.828247
409 1 0.148129 0.273657 0.5 0.39999 0.285472
410 1 0.399562 0.219609 0.5 0.0141601 0.335884
411 1 0.901292 0.20972 0.5 0.155539 -0.905754
412 1 0.430148 0.357985 0.5 0.289482 -0.89425
413 1 0.910491 0.929002 0.5 -0.00380772 0.519144
414 1 0.124335 0.763921 0.5 0.101141 0.581803
415 1 0.207565 0.223612 0.5 0.763033 -0.320985
416 1 0.284583 0.329568 0.5 -0.0375404 -0.274379
417 1 0.0733639 0.0878555 0.5 -0.83952 0.109887
418 1 0.379369 0.363817 0.5 0.206653 -0.480563
419 1 0.258632 0.0755527 0.5 0.631288 0.673082
420 1 0.182758 0.370512 0.5 0.18783 0.86708
421 1 0.334037 0.327934 0.5 0.171225 -0.750018
422 1 0.0476052 0.249956 0.5 -0.445916 -0.23252
423 1 0.313921 0.0904198 0.5 0.400823 0.205971
424 1 0.951058 0.235153 0.5 -0.725537 0.642395
425 1 0.971642 0.244725 0.5 -0.588258 0.246216
426 1 0.097593 0.522267 0.5 0.317064 -0.455878
427 1 0.0125682 0.457617 0.5 -0.178853 0.368326
428 1 0.0181604 0.279643 0.5 -0.629776 0.494633
429 1 0.127595 0.280402 0.5 0.601318 0.290648
430 1 0.248029 0.149225 0.5 0.217851 0.557934
431 1 0.266034 0.234501 0.5 -0.266018 -0.255457
432 1 0.0933746 0.424108 0.5 0.358018 0.162642
433 1 0.970872 0.140953 0.5 0.424139 -0.366774
434 1 0.364369 0.321172 0.5 0.276736 -0.844212
435 1 0.0368753 0.265031 0.5 -0.768417 0.167755
436 1 0.237577 0.335447 0.5 0.185549 0.691236
437 1 0.106669 0.387178 0.5 0.668882 0.289537
438 1 0.350213 0.332172 0.5 0.433294 -0.561814
439 1 0.0661311 0.010432 0.5 0.808241 -0.417558
440 1 0.224178 0.296728 0.5 0.277142 0.221959
441 1 0.311357 0.386968 0.5 0.040745 -0.07356
442 1 0.138855 0.404349 0.5 0.689708 -0.0800701
443 1 0.0266942 0.0128828 0.5 0.405538 -0.35524
444 1 0.307257 0.0705704 0.5 0.0165312 0.695778
445 1 0.206758 0.311914 0.5 0.0662923 0.690462
446 1 0.345036 0.323645 0.5 0.122872 -0.468027
447 1 0.83222 0.175491 0.5 -0.253936 -0.551608
448 1 0.132153 0.673476 0.5 -0.089684 -0.78099
449 1 0.0523323 0.437297 0.5 -0.298527 0.475287
450 1 0.163713 0.349725 0.5 0.392701 0.638657
451 1 0.113159 0.367756 0.5 -0.352415 0.615369
452 1 0.198058 0.562304 0.5 -0.600314 0.0212778
453 1 0.0283845 0.099787 0.5 0.0461559 -0.728768
454 1 0.857904 0.976085 0.5 0.0706302 0.557824
455 1 0.955141 0.298789 0.5 -0.809454 0.562873
456 1 0.126931 0.143867 0.5 -0.28311 0.51271
457 1 0.891857 0.440679 0.5 -0.48691 0.666421
458 1 0.887503 0.297754 0.5 -0.235343 0.0468245
459 1 0.874271 0.0168548 0.5 -0.386091 0.657267
460 1 0.160531 0.338733 0.5 0.20808 0.882144
461 1 0.0901562 0.317785 0.5 0.445085 0.213521
462 1 0.0313214 0.634093 0.5 -0.388792 -0.596534
463 1 0.989262 0.245411 0.5 -0.507142 0.334489
464 1 0.275057 0.224452 0.5 0.608451 -0.0456274
465 1 0.437486 0.336947 0.5 0.249962 -0.0911501
466 1 0.766654 0.283511 0.5 -0.62142 0.17202
467 1 0.860711 0.222552 0.5 -0.315824 -0.801624
468 1 0.00633315 0.211709 0.5 -0.506337 -0.0896846
469 1 0.985064 0.367384 0.5 -0.790458 0.282231
470 1 0.853936 0.916525 0.5 -0.533338 0.608858
471 1 0.282166 0.279248 0.5 0.617671 -0.695758
472 1 0.876335 0.0549621 0.5 0.456038 0.0573555
473 1 0.180234 0.506003 0.5 -0.157739 0.0381182
474 1 0.0243522 0.157189 0.5 -0.142446 0.524766
475 1 0.861328 0.407328 0.5 -0.474627 0.707769
476 1 0.0763177 0.252389 0.5 0.139859 0.841358
477 1 0.34813 0.260431 0.5 0.620615 -0.473663
478 1 0.0414175 0.420055 0.5 0.0102061 0.241056
479 1 0.988152 0.0543671 0.5 -0.141517 -0.775562
480 1 0.972845 0.159353 0.5 0.566482 -0.348869
481 1 0.079068 0.224602 0.5 -0.426023 0.716702
482 1 0.925808 0.226631 0.5 0.204389 -0.0416824
483 1 0.391951 0.021054 0.5 0.038767 -0.158753
484 1 0.0518868 0.209704 0.5 0.461586 0.25731
485 1 0.375965 0.26561 0.5 0.205837 -0.828383
486 1 0.0891542 0.143639 0.5 -0.645003 0.407053
487 1 0.035607 0.254939 0.5 -0.513458 0.42774
488 1 0.190959 0.0164816 0.5 -0.061407 -0.0722466
489 1 0.124481 0.395289 0.5 0.840977 -0.0631095
490 1 0.0364739 0.288917 0.5 -0.749541 0.244563
491 1 0.911896 0.012353 0.5 -0.199294 0.474927
492 1 0.00243107 0.331877 0.5 -0.712155 -0.0331365
493 1 0.738617 0.217327 0.5 -0.710803 0.419452
494 1 0.254965 0.119792 0.5 0.382519 0.307396
495 1 0.388866 0.36384 0.5 0.756106 -0.566825
496 1 0.963549 0.0664879 0.5 0.00974272 -0.805777
497 1 0.180705 0.342656 0.5 0.451174 0.846135
498 1 0.213234 0.331515 0.5 0.206665 0.59807
499 1 0.242835 0.305294 0.5 -0.0484269 -0.807622
500 1 0.310104 0.367663 0.5 0.0517978 -0.644491
501 1 0.0805465 0.303433 0.5 -0.0765723 -0.336422
502 1 0.216228 0.356216 0.5 0.502296 0.781916
503 1 0.0327182 0.116025 0.5 -0.0130743 -0.880839
504 1 0.952751 0.267035 0.5 -0.982129 0.124146
505 1 0.0562795 0.244356 0.5 -0.40823 0.472073
506 1 0.281557 0.384017 0.5 -0.501891 0.37734
507 1 0.880454 0.304582 0.5 -0.435332 0.277823
508 1 0.353615 0.279719 0.5 0.381003 -0.265763
509 1 0.0297164 0.0755798 0.5 -0.443065 -0.256042
510 1 0.968355 0.900767 0.5 -0.338525 0.63496
511 1 0.790863 0.299901 0.5 -0.00282027 -0.135785
512 1 0.0996641 0.279558 0.5 -0.914808 -0.00734042
513 1 0.927237 0.262771 0.5 -0.792338 0.19214
514 1 0.896263 0.382527 0.5 -0.730022 0.615678
515 1 0.00547129 0.411379 0.5 -0.865498 0.278918
516 1 0.0260624 0.511204 0.5 0.294206 0.156094
517 1 0.166391 0.293544 0.5 0.329595 0.135973
518 1 0.355259 0.323719 0.5 0.40787 -0.53716
519 1 0.234703 0.194945 0.5 -0.665776 0.283142
520 1 0.115062 0.266496 0.5 -0.35126 0.786145
521 1 0.058281 0.872461 0.5 0.248134 0.363624
522 1 0.072463 0.241482 0.5 -0.229534 0.789209
523 1 0.871434 0.33976 0.5 -0.211622 -0.119608
524 1 0.218662 0.315238 0.5 0.430395 0.643646
525 1 0.0236578 0.421748 0.5 -0.941453 0.0119859
526 1 0.320602 0.403943 0.5 -0.774661 -0.383529
527 1 0.967222 0.481122 0.5 0.319882 0.0540376
528 1 0.85188 0.0670937 0.5 -0.195809 -0.490713
529 1 0.117316 0.217379 0.5 -0.480307 0.467662
530 1 0.989382 0.0425576 0.5 -0.259437 -0.911733
531 1 0.279662 0.319539 0.5 0.116207 -0.0225924
532 1 0.887293 0.184526 0.5 0.128639 -0.77213
533 1 0.879301 0.255314 0.5 -0.26085 0.299466
534 1 0.0504068 0.149699 0.5 0.210094 0.0882062
535 1 0.06887 0.126458 0.5 -0.526046 0.692835
536 1 0.164791 0.48262 0.5 0.21095 0.440241
537 1 0.0416395 0.40231 0.5 0.177923 -0.028192
538 1 0.318758 0.41393 0.5 -0.470604 -0.487651
539 1 0.951534 0.214406 0.5 -0.506239 -0.441788
540 1 0.0909597 0.284357 0.5 0.00384089 -0.124634
541 1 0.155529 0.465267 0.5 0.450884 0.0706152
542 1 0.780531 0.0166837 0.5 0.119328 0.207896
543 1 0.0471438 0.305943 0.5 -0.527304 0.507781
544 1 0.00645215 0.0958197 0.5 0.272398 -0.419425
545 1 0.0103529 0.985315 0.5 0.49176 -0.0435547
546 1 0.28964 0.439514 0.5 -0.591737 0.742422
547 1 0.785254 0.232156 0.5 -0.00794068 0.0202012
548 1 0.903379 0.200027 0.5 -0.536673 -0.63886
549 1 0.0978887 0.356968 0.5 0.490059 0.373871
550 1 0.81032 0.117843 0.5 -0.169728 -0.633188
551 1 0.0286638 0.128803 0.5 0.312459 0.247113
552 1 0.1395 0.108826 0.5 -0.768572 0.401973
553 1 0.0804577 0.235122 0.5 -0.382882 0.774566
554 1 0.319107 0.439489 0.5 -0.281209 0.689395
555 1 0.949457 0.378873 0.5 -0.925137 0.0358945
556 1 0.7921 0.214059 0.5 0.404095 0.0514589
557 1 0.891738 0.211643 0.5 0.142535 -0.293582
558 1 0.0365979 0.277277 0.5 -0.832876 -0.182505
559 1 0.369355 0.337918 0.5 0.244386 -0.812189
560 1 0.893575 0.0135203 0.5 -0.302338 0.74637
561 1 0.0430032 0.230674 0.5 -0.694316 -0.0475918
562 1 0.221396 0.324576 0.5 0.328183 0.55228
563 1 0.104286 0.509967 0.5 0.745984 0.381395
564 1 0.995584 0.0613446 0.5 -0.433605 -0.681421
565 1 0.117374 0.495439 0.5 0.53667 0.76308
566 1 0.919359 0.312248 0.5 -0.844919 -0.369635
567 1 0.17036 0.490571 0.5 0.319782 0.356643
568 1 0.767435 0.234135 0.5 0.0276352 0.185418
569 1 0.0219557 0.185872 0.5 -0.474214 0.789476
570 1 0.983321 0.337382 0.5 -0.286757 0.522211
571 1 0.253574 0.248591 0.5 0.542666 -0.485642
572 1 0.363279 0.389822 0.5 0.111547 -0.021002
573 1 0.867907 0.451038 0.5 -0.254238 0.522369
574 1 0.268413 0.309613 0.5 0.50053 0.141672
575 1 0.29949 0.371909 0.5 -0.367269 0.104647
576 1 0.861311 0.396744 0.5 -0.466663 0.680497
577 1 0.910965 0.091675 0.5 0.283391 -0.900191
578 1 0.357712 0.340424 0.5 -0.0481917 -0.898121
579 1 0.998497 0.500008 0.5 0.441643 0.520482
580 1 0.985055 0.0633479 0.5 0.234535 -0.897104
581 1 0.282159 0.150257 0.5 -0.19188 0.524741
582 1 0.86562 0.16533 0.5 -0.297575 -0.582048
583 1 0.0655008 0.164856 0.5 -0.23406 0.885732
584 1 0.163402 0.253917 0.5 0.0767865 0.117321
585 1 0.792653 0.26656 0.5 -0.324481 -0.254844
586 1 0.256609 0.701684 0.5 0.689682 -0.274557
587 1 0.996478 0.157489 0.5 -0.112296 0.619198
588 1 0.00110392 0.302391 0.5 -0.964952 -0.00677249
589 1 0.930632 0.467626 0.5 0.596039 0.477053
590 1 0.428492 0.384592 0.5 5.32262e-05 -0.0783369
591 1 0.765708 0.0624291 0.5 -0.863699 0.366899
592 1 0.111212 0.244185 0.5 -0.181562 0.690402
593 1 0.989577 0.264595 0.5 -0.844555 0.0925991
594 1 0.321209 0.337559 0.5 0.444388 -0.579623
595 1 0.171785 0.21178 0.5 -0.381433 0.411758
596 1 0.215984 0.501595 0.5 -0.477451 0.1772
597 1 0.064796 0.361424 0.5 0.518655 0.163353
598 1 0.305238 0.238599 0.5 0.24259 -0.451728
599 1 0.981103 0.167185 0.5 0.437695 -0.0808362
600 1 0.0798218 0.261176 0.5 -0.103679 0.650661
601 1 0.912422 0.053934 0.5 -0.834869 -0.124063
602 1 0.00588291 0.254874 0.5 -0.321954 0.218536
603 1 0.131338 0.33545 0.5 0.583861 0.0649193
604 1 0.107 0.0286543 0.5 0.336936 -0.914834
605 1 0.129861 0.297899 0.5 0.713566 0.0327532
606 1 0.00759164 0.161741 0.5 -0.233139 0.909982
607 1 0.0965279 0.257605 0.5 -0.320864 0.632271
608 1 0.929068 0.949947 0.5 0.0871416 0.475213
609 1 0.0947387 0.541456 0.5 -0.131344 -0.313752
610 1 0.188372 0.416429 0.5 0.309062 0.277347
611 1 0.0506239 0.55097 0.5 -0.862747 0.262725
612 1 0.381917 0.300437 0.5 0.476668 -0.809717
613 1 0.256711 0.0553219 0.5 0.574887 -0.334108
614 1 0.134758 0.309114 0.5 0.861606 0.209641
615 1 0.249639 0.312795 0.5 0.0541604 -0.713619
616 1 0.163072 0.369491 0.5 0.574303 0.205046
617 1 0.94144 0.00484787 0.5 0.18904 -0.2399
618 1 0.0917016 0.41467 0.5 0.503033 0.614442
619 1 0.884693 0.195595 0.5 -0.573656 -0.720509
620 1 0.898935 0.274166 0.5 -0.0245935 0.557124
621 1 0.96719 0.16864 0.5 0.602752 0.113474
622 1 0.944422 0.534542 0.5 0.00249333 0.414638
623 1 0.114287 0.511852 0.5 0.441546 0.860588
624 1 0.016666 0.246903 0.5 -0.668372 0.312657
625 1 0.877485 0.11339 0.5 -0.373806 -0.862248
626 1 0.997874 0.207606 0.5 -0.29376 -0.533754
627 1 0.345609 0.179057 0.5 0.671487 -0.641662
628 1 0.346448 0.353947 0.5 -0.489111 -0.247342
629 1 0.238337 0.36412 0.5 0.175644 0.452033
630 1 0.27707 0.291335 0.5 0.648871 -0.58163
631 1 0.286536 0.418399 0.5 -0.475179 0.802118