ITEM: TIMESTEP
0
ITEM: NUMBER OF ATOMS
10217
ITEM: BOX BOUNDS pp pp pp
-5.8359999999999999e+01 5.8359999999999999e+01
-5.8359999999999999e+01 5.8359999999999999e+01
-5.0000000000000000e-01 5.0000000000000000e-01
ITEM: ATOMS id type xs ys zs c_002[1] c_002[2]
1 1 0.986751 0.21786 0.5 0.353253 0.620494
2 1 0.900135 0.0783629 0.5 -0.0529094 0.721261
3 1 0.118253 0.960001 0.5 0.00368778 0.873889
4 1 0.00934725 0.122858 0.5 0.0328535 0.552043
5 1 0.153751 0.00074528 0.5 0.288245 0.177893
6 1 0.901243 0.198239 0.5 0.333672 0.859309
7 1 0.0788684 0.532698 0.5 0.273583 0.207781
8 1 0.982085 0.180889 0.5 0.59237 0.623019
9 1 0.0926878 0.0419152 0.5 0.228766 0.325456
10 1 0.0121593 0.132457 0.5 0.201037 0.458908
11 1 0.00271316 0.157453 0.5 0.278543 0.793915
12 1 0.806114 0.294582 0.5 0.267406 0.633894
13 1 0.121318 0.90503 0.5 -0.291315 0.770393
14 1 0.973074 0.178232 0.5 0.225267 0.913604
15 1 0.105003 0.196992 0.5 0.0827023 0.160307
16 1 0.901842 0.145874 0.5 0.309846 0.783553
17 1 0.983855 0.900303 0.5 0.644061 -0.168441
18 1 0.217768 0.0547834 0.5 0.370175 0.801434
19 1 0.0952297 0.120852 0.5 0.334608 0.719298
20 1 0.953469 0.87685 0.5 0.515679 -0.289762
21 1 0.140494 0.176454 0.5 -0.00576326 0.186155
22 1 0.170877 0.237388 0.5 -0.101878 0.845878
23 1 0.293008 0.0543819 0.5 -0.00684233 0.937086
24 1 0.87869 0.169069 0.5 0.301643 0.770116
25 1 0.0862449 0.0608682 0.5 0.356662 0.696664
26 1 0.993107 0.248148 0.5 0.00876729 0.915741
27 1 0.216776 0.911174 0.5 0.227103 0.959956
28 1 0.131242 0.328678 0.5 0.549997 0.457602
29 1 0.96364 0.297234 0.5 0.125547 0.914806
30 1 0.00973212 0.814881 0.5 -0.379167 0.311827
31 1 0.985253 0.328971 0.5 0.370159 0.766739
32 1 0.966735 0.989688 0.5 0.518042 0.353285
33 1 0.144292 0.310987 0.5 0.820296 -0.110241
34 1 0.0263615 0.198148 0.5 0.370595 0.800704
35 1 0.167258 0.109673 0.5 -0.0117945 0.516488
36 1 0.970262 0.234854 0.5 0.386684 0.778012
37 1 0.0623175 0.933788 0.5 -0.192355 0.184019
38 1 0.335626 0.155858 0.5 0.577638 0.725443
39 1 0.0502798 0.213076 0.5 0.2171 0.91026
40 1 0.075887 0.183445 0.5 0.410806 0.654969
41 1 0.849599 0.219776 0.5 0.475053 0.39397
42 1 0.907384 0.302497 0.5 0.525253 0.691697
43 1 0.100473 0.279356 0.5 0.143726 0.541988
44 1 0.059634 0.998407 0.5 -0.107704 0.686082
45 1 0.00654904 0.221959 0.5 0.458726 0.740948
46 1 0.984728 0.162789 0.5 0.403885 0.821626
47 1 0.927705 0.129757 0.5 0.632845 0.532536
48 1 0.150189 0.282776 0.5 -0.679991 0.418412
49 1 0.205458 0.00257916 0.5 -0.138364 0.629974
50 1 0.00520267 0.0470233 0.5 -0.051619 0.808228
51 1 0.941762 0.264452 0.5 0.34602 0.807156
52 1 0.942228 0.144539 0.5 -0.140899 0.73141
53 1 0.98222 0.031817 0.5 0.0334499 0.670851
54 1 0.117042 0.922759 0.5 -0.263415 0.865241
55 1 0.0702607 0.164015 0.5 0.331973 0.875705
56 1 0.997498 0.360153 0.5 0.277379 0.503034
57 1 0.799649 0.106822 0.5 0.177614 0.745255
58 1 0.0695253 0.0942626 0.5 0.461923 0.695997
59 1 0.159086 0.945261 0.5 -0.129164 0.851733
60 1 0.0485253 0.0360276 0.5 -0.411184 0.694961
61 1 0.104855 0.18078 0.5 0.608924 0.129448
62 1 0.112551 0.0478396 0.5 -0.237231 0.857955
63 1 0.0842002 0.285522 0.5 0.601603 0.713891
64 1 0.981576 0.208421 0.5 0.754816 0.552696
65 1 0.0569428 0.178576 0.5 -0.0478556 0.945482
66 1 0.0392951 0.368245 0.5 0.633854 0.730626
67 1 0.0810368 0.165916 0.5 0.380047 0.836769
68 1 0.959532 0.16504 0.5 0.215562 0.558206
69 1 0.302201 0.942447 0.5 0.180461 0.298783
70 1 0.884681 0.299094 0.5 0.229328 0.741945
71 1 0.797384 0.23707 0.5 0.544402 0.74975
72 1 0.851919 0.201431 0.5 -0.0586264 0.920085
73 1 0.159137 0.265429 0.5 -0.389942 0.699834
74 1 0.924504 0.146973 0.5 -0.116162 0.736941
75 1 0.839273 0.24441 0.5 0.433321 0.749169
76 1 0.908448 0.24958 0.5 0.351236 0.826226
77 1 0.123369 0.154259 0.5 0.043887 0.433665
78 1 0.0749559 0.144154 0.5 0.37553 0.24159
79 1 0.0177047 0.13994 0.5 0.270132 0.565665
80 1 0.137541 0.222347 0.5 -0.171569 0.282495
81 1 0.169908 0.395079 0.5 0.227553 0.424135
82 1 0.85922 0.194791 0.5 0.131011 0.791427
83 1 0.0381537 0.266382 0.5 -0.153711 0.68906
84 1 0.0337001 0.0971774 0.5 0.113323 -0.123853
85 1 0.124233 0.243427 0.5 0.244392 0.917275
86 1 0.0316531 0.153337 0.5 0.15926 0.667217
87 1 0.906442 0.238413 0.5 0.541558 0.394972
88 1 0.0507537 0.102954 0.5 0.76296 -0.195702
89 1 0.16018 0.195697 0.5 0.121467 0.831091
90 1 0.0207221 0.299544 0.5 0.556102 0.590971
91 1 0.121594 0.942141 0.5 0.284217 0.782762
92 1 0.819262 0.185655 0.5 0.4944 0.844393
93 1 0.136948 0.036959 0.5 0.2171 0.627502
94 1 0.924654 0.186736 0.5 0.314294 0.736354
95 1 0.921214 0.13768 0.5 0.558081 0.490176
96 1 0.911294 0.201292 0.5 0.0204485 0.863168
97 1 0.985793 0.255773 0.5 0.293197 0.902566
98 1 0.0839109 0.83343 0.5 -0.54371 0.344212
99 1 0.195315 0.972583 0.5 0.169229 0.917775
100 1 0.170427 0.198969 0.5 0.303129 0.810878
101 1 0.924994 0.0481686 0.5 -0.103148 0.395813
102 1 0.075377 0.22995 0.5 -0.265496 0.811116
103 1 0.0642344 0.982767 0.5 -0.3527 0.657086
104 1 0.163532 0.119249 0.5 -0.252832 0.372904
105 1 0.0215778 0.079049 0.5 0.170162 0.0117347
106 1 0.0366868 0.0214257 0.5 0.107726 0.634926
107 1 0.0155995 0.196384 0.5 0.299287 0.874854
108 1 0.00533176 0.195181 0.5 0.247673 0.900631
109 1 0.0667146 0.19952 0.5 -0.148679 0.31374
110 1 0.0339967 0.285316 0.5 -0.125412 0.879907
111 1 0.251797 0.968762 0.5 0.155642 0.933319
112 1 0.869696 0.305439 0.5 0.497589 0.618827
113 1 0.961042 0.174841 0.5 0.165792 0.499715
114 1 0.0698748 0.246393 0.5 -0.451391 0.717953
115 1 0.965166 0.156967 0.5 0.243768 0.723904
116 1 0.0651607 0.113856 0.5 0.279562 0.876397
117 1 0.0406495 0.277744 0.5 -0.193253 0.827495
118 1 0.189174 0.269238 0.5 0.199239 0.595677
119 1 0.149057 0.0768481 0.5 -0.0916755 0.88604
120 1 0.000970065 0.174119 0.5 0.321802 0.671213
121 1 0.900027 0.173539 0.5 0.268164 0.580079
122 1 0.128512 0.300988 0.5 0.280409 0.0702095
123 1 0.0279272 0.207374 0.5 0.24421 0.611691
124 1 0.109333 0.132619 0.5 -0.465052 0.806005
125 1 0.0820659 0.0783768 0.5 0.71265 0.639115
126 1 0.0169609 0.0599843 0.5 0.107465 0.398679
127 1 0.883253 0.177719 0.5 0.167009 0.725433
128 1 0.30732 0.899489 0.5 0.35463 0.834352
129 1 0.077778 0.0686586 0.5 0.366981 0.607733
130 1 0.110148 0.411464 0.5 0.0235269 0.954546
131 1 0.154104 0.153044 0.5 -0.504964 0.640911
132 1 0.081334 0.84551 0.5 -0.468589 -0.617544
133 1 0.232449 0.946785 0.5 0.622473 0.048914
134 1 0.992411 0.126491 0.5 0.221199 0.899428
135 1 0.943 0.154289 0.5 -0.301196 0.650439
136 1 0.103084 0.96441 0.5 0.0999412 0.291197
137 1 0.0562941 0.132408 0.5 0.331283 -0.379321
138 1 0.085743 0.312265 0.5 0.599225 0.732386
139 1 0.00192804 0.0997679 0.5 0.741599 0.39044
140 1 0.0770564 0.366801 0.5 0.585725 0.668574
141 1 0.189506 0.346261 0.5 0.00272692 0.0640249
142 1 0.298725 0.168388 0.5 0.267663 0.694812
143 1 0.931123 0.263276 0.5 0.0714834 0.726653
144 1 0.0363065 0.229115 0.5 0.00974052 0.874427
145 1 0.230223 0.991755 0.5 -0.341005 0.623386
146 1 0.0897255 0.128823 0.5 0.219426 0.446007
147 1 0.921905 0.175868 0.5 0.0810237 0.940857
148 1 0.0610868 0.162487 0.5 0.111485 0.841603
149 1 0.900323 0.229307 0.5 0.405197 0.215057
150 1 0.2353 0.144503 0.5 -0.432107 0.69913
151 1 0.128063 0.163224 0.5 0.1275 0.660239
152 1 0.952137 0.239645 0.5 0.261835 0.796775
153 1 0.0593373 0.189464 0.5 0.0120002 0.387908
154 1 0.0797131 0.918612 0.5 -0.552604 0.768294
155 1 0.940762 0.0872555 0.5 0.0658957 0.819372
156 1 0.115085 0.289362 0.5 0.726146 0.476339
157 1 0.0236231 0.0957844 0.5 0.493726 -0.207753
158 1 0.974115 0.327808 0.5 0.617597 0.638829
159 1 0.864433 0.231847 0.5 0.132988 0.640559
160 1 0.279237 0.92898 0.5 -0.300686 0.889918
161 1 0.101775 0.0441556 0.5 -0.479093 0.686723
162 1 0.263561 0.01927 0.5 -0.211548 0.414419
163 1 0.152303 0.020218 0.5 0.481028 0.618884
164 1 0.0602732 0.215405 0.5 -0.0667168 0.743495
165 1 0.0535038 0.968274 0.5 0.347573 0.898173
166 1 0.0405435 0.0826787 0.5 -0.614888 0.292542
167 1 0.894921 0.152294 0.5 0.149568 0.893791
168 1 0.925995 0.2432 0.5 0.143298 0.970224
169 1 0.107703 0.064998 0.5 0.439187 0.685267
170 1 0.0860929 0.0899461 0.5 0.533015 0.583158
171 1 0.919249 0.991591 0.5 0.267073 0.376668
172 1 0.0226067 0.25401 0.5 0.446818 0.687511
173 1 0.185994 0.969484 0.5 0.489554 0.69606
174 1 0.146629 0.00975556 0.5 0.573507 0.545143
175 1 0.938865 0.33782 0.5 -0.0339111 0.8705
176 1 0.915558 0.183428 0.5 0.271694 0.87237
177 1 0.989554 0.365655 0.5 -0.0776147 0.838979
178 1 0.833438 0.289794 0.5 0.228343 0.825901
179 1 0.0411137 0.350817 0.5 0.627455 0.602685
180 1 0.0963809 0.15865 0.5 0.204538 0.680148
181 1 0.0448426 0.830517 0.5 -0.468958 -0.444476
182 1 0.0874494 0.0339434 0.5 0.678749 0.533258
183 1 0.942431 0.0975211 0.5 0.264642 0.842457
184 1 0.2934 0.0269803 0.5 0.49629 0.777257
185 1 0.996522 0.942819 0.5 0.607106 -0.643364
186 1 0.958471 0.343647 0.5 0.0801579 0.593508
187 1 0.198513 0.982849 0.5 0.325983 0.88765
188 1 0.218032 0.942186 0.5 -0.416516 -0.129433
189 1 0.0385696 0.209961 0.5 0.146737 0.80494
190 1 0.955691 0.305474 0.5 0.0780909 0.888414
191 1 0.842343 0.253343 0.5 -0.0361311 0.74704
192 1 0.0252175 0.35508 0.5 0.358112 0.695132
193 1 0.894019 0.265127 0.5 0.167606 0.924461
194 1 0.976072 0.254074 0.5 0.0996642 0.946757
195 1 0.129232 0.345528 0.5 -0.0473597 0.701656
196 1 0.974353 0.216258 0.5 0.360712 0.902702
197 1 0.957305 0.222771 0.5 0.428901 0.856646
198 1 0.172701 0.161546 0.5 -0.159527 0.721014
199 1 0.946144 0.248378 0.5 0.325099 0.839318
200 1 0.0303293 0.181203 0.5 0.227596 0.888021
201 1 0.142312 0.231037 0.5 0.140108 0.500661
202 1 0.00129328 0.910789 0.5 -0.0833685 0.20553
203 1 0.857593 0.248896 0.5 0.0307345 0.385073
204 1 0.0789572 0.0970329 0.5 0.0619513 0.964355
205 1 0.913321 0.0263353 0.5 0.186252 0.527318
206 1 0.00167488 0.211547 0.5 0.476164 0.718365
207 1 0.994014 0.10873 0.5 0.783647 0.477768
208 1 0.986873 0.972589 0.5 0.138814 -0.843642
209 1 0.0688296 0.210652 0.5 -0.143297 0.709383
210 1 0.0937602 0.286166 0.5 0.284173 0.855828
211 1 0.218509 0.119825 0.5 0.00234304 0.749406
212 1 0.922012 0.259945 0.5 0.000998329 0.871581
213 1 0.0955499 0.177719 0.5 0.368004 0.745272
214 1 0.991977 0.209755 0.5 0.719318 0.636667
215 1 0.999335 0.266608 0.5 0.269621 0.673015
216 1 0.0210357 0.179117 0.5 0.247591 0.78415
217 1 0.93064 0.280009 0.5 0.126349 0.50252
218 1 0.900929 0.0878989 0.5 -0.0324896 0.496394
219 1 0.898923 0.311204 0.5 0.546541 0.536837
220 1 0.00953942 0.0662879 0.5 -0.159759 0.89196
221 1 0.865125 0.295747 0.5 0.714272 0.591018
222 1 0.132275 0.275596 0.5 -0.277403 0.571243
223 1 0.0455176 0.453537 0.5 0.528095 0.816502
224 1 0.0759175 0.266631 0.5 0.607079 0.59502
225 1 0.0727374 0.174533 0.5 0.0989265 0.94256
226 1 0.945034 0.302431 0.5 0.153655 0.857489
227 1 0.992322 0.155892 0.5 -0.00480799 0.709519
228 1 0.969427 0.910288 0.5 0.348789 -0.845525
229 1 0.147069 0.037129 0.5 0.33616 0.749975
230 1 0.0115832 0.213914 0.5 0.401889 0.775083
231 1 0.114948 0.00129508 0.5 -0.544972 0.00406654
232 1 0.319105 0.0427455 0.5 0.0470076 0.879949
233 1 0.0988966 0.139625 0.5 0.0853719 0.258536
234 1 0.865637 0.982023 0.5 0.213337 0.849071
235 1 0.188055 0.0188975 0.5 0.0108194 0.794564
236 1 0.967567 0.22371 0.5 0.367423 0.86649
237 1 0.117572 0.125521 0.5 0.188215 0.76856
238 1 0.919131 0.1952 0.5 0.306696 0.489748
239 1 0.913121 0.269659 0.5 0.249791 0.531207
240 1 0.926256 0.076158 0.5 0.194793 0.908143
241 1 0.129146 0.0709318 0.5 -0.1152 0.827847
242 1 0.935966 0.272015 0.5 0.552995 0.643477
243 1 0.0460182 0.231388 0.5 0.204109 0.960999
244 1 0.965972 0.185399 0.5 0.192748 0.783133
245 1 0.143007 0.0575074 0.5 -0.0207118 0.468439
246 1 0.0146613 0.354259 0.5 0.57535 0.707345
247 1 0.952497 0.147148 0.5 0.282956 0.546858
248 1 0.919187 0.334538 0.5 0.552421 0.5453
249 1 0.818715 0.238898 0.5 0.0631304 0.8193
250 1 0.907493 0.220618 0.5 0.353843 0.676618
251 1 0.227168 0.98174 0.5 0.354528 0.796108
252 1 0.922671 0.0284109 0.5 0.179837 0.877274
253 1 0.908391 0.190997 0.5 -0.00397474 0.948067
254 1 0.0322753 0.219765 0.5 0.349625 0.780155
255 1 0.0954768 0.0246606 0.5 0.537341 0.738437
256 1 0.187148 0.0482286 0.5 0.0240093 0.665129
257 1 0.0579733 0.121277 0.5 -0.301348 0.471909
258 1 0.940816 0.228926 0.5 0.411691 0.505657
259 1 0.914445 0.146097 0.5 0.464445 0.448802
260 1 0.959677 0.0916893 0.5 0.145847 0.881466
261 1 0.200728 0.955295 0.5 -0.186447 0.565321
262 1 0.243478 0.910846 0.5 0.204132 0.645154
263 1 0.157186 0.0689161 0.5 0.277623 0.799748
264 1 0.00100865 0.0372873 0.5 -0.0595866 0.588482
265 1 0.992209 0.8563 0.5 -0.144305 0.752385
266 1 0.0647816 0.337071 0.5 0.643561 0.530935
267 1 0.046746 0.261183 0.5 0.106355 0.415939
268 1 0.0404841 0.182551 0.5 0.105274 0.770096
269 1 0.107422 0.342351 0.5 0.627096 0.695047
270 1 0.0415013 0.249825 0.5 0.108686 0.854255
271 1 0.207299 0.225153 0.5 -0.0365824 0.925707
272 1 0.876068 0.216655 0.5 0.853918 0.289776
273 1 0.0515665 0.140778 0.5 0.421305 -0.0375902
274 1 0.0965761 0.0908934 0.5 0.843316 0.460911
275 1 0.960163 0.232451 0.5 0.118814 0.964293
276 1 0.946814 0.275555 0.5 0.566571 0.645497
277 1 0.98213 0.373922 0.5 -0.0161744 0.940179
278 1 0.0313575 0.273815 0.5 0.103303 0.87025
279 1 0.0767481 0.293696 0.5 0.206247 0.82295
280 1 0.102231 0.0162149 0.5 0.141077 0.0950354
281 1 0.000294417 0.99533 0.5 0.126416 0.141169
282 1 0.98248 0.235341 0.5 0.164406 0.598961
283 1 0.0122088 0.159036 0.5 0.255695 0.727219
284 1 0.11009 0.171306 0.5 0.812161 0.0531292
285 1 0.0101293 0.99616 0.5 0.134506 -0.294116
286 1 0.975715 0.309394 0.5 0.277059 0.809625
287 1 0.921666 0.287467 0.5 -0.119869 0.93205
288 1 0.0658797 0.0583071 0.5 0.36805 0.713136
289 1 0.212045 0.127268 0.5 0.701187 0.525014
290 1 0.209919 0.236572 0.5 -0.218017 0.846828
291 1 0.0772058 0.154799 0.5 0.283758 0.851952
292 1 0.0434473 0.0933731 0.5 0.0723352 -0.0279718
293 1 0.287766 0.957392 0.5 0.372632 0.172838
294 1 0.949211 0.191439 0.5 0.0963187 0.737172
295 1 0.890697 0.22645 0.5 0.29205 0.859484
296 1 0.0163659 0.334638 0.5 0.352803 0.735208
297 1 0.0680969 0.90496 0.5 -0.552043 0.702368
298 1 0.869097 0.196931 0.5 0.482144 0.492527
299 1 0.897943 0.135058 0.5 0.200566 0.719051
300 1 0.947792 0.957793 0.5 -0.312934 0.351064
301 1 0.929324 0.253204 0.5 0.0776656 0.933035
302 1 0.177783 0.190616 0.5 0.375529 0.908946
303 1 0.929739 0.168432 0.5 0.372791 0.797064
304 1 0.247316 0.0256722 0.5 -0.253905 0.818042
305 1 0.980528 0.319854 0.5 0.524503 0.725306
306 1 0.0500797 0.159257 0.5 -0.0538054 0.957052
307 1 0.023139 0.115373 0.5 0.532231 0.0972662
308 1 0.88419 0.120465 0.5 0.0133949 0.296104
309 1 0.0816452 0.108302 0.5 0.00567759 0.837268
310 1 0.11758 0.933547 0.5 -0.076572 0.773424
311 1 0.164551 0.845131 0.5 0.926931 0.207621
312 1 0.158028 0.254764 0.5 -0.0119607 0.489327
313 1 0.0994547 0.129405 0.5 -0.0496806 0.503025
314 1 0.990873 0.0696783 0.5 0.312352 0.483131
315 1 0.21405 0.00678985 0.5 -0.155758 0.699756
316 1 0.00174452 0.35165 0.5 0.177535 0.516586
317 1 0.22774 0.954961 0.5 -0.00771986 0.480864
318 1 0.0927651 0.574777 0.5 -0.138895 0.662603
319 1 0.164972 0.327726 0.5 0.251016 0.385087
320 1 0.998289 0.546918 0.5 0.303743 0.346175
321 1 0.259032 0.433998 0.5 0.37382 0.765098
322 1 0.162442 0.581788 0.5 0.537691 0.662965
323 1 0.0470156 0.584126 0.5 0.471409 0.85428
324 1 0.0755958 0.522537 0.5 0.412511 0.525096
325 1 0.291145 0.336289 0.5 -0.12609 0.705175
326 1 0.969858 0.593739 0.5 -0.316721 -0.524082
327 1 0.97701 0.28024 0.5 0.247114 0.857413
328 1 0.098395 0.593995 0.5 0.275559 0.509342
329 1 0.111928 0.258911 0.5 0.194847 0.812167
330 1 0.956925 0.414958 0.5 0.25521 0.889983
331 1 0.110622 0.450008 0.5 0.188757 0.85646
332 1 0.00362034 0.595869 0.5 0.429506 0.255427
333 1 0.236477 0.484329 0.5 0.429942 0.795129
334 1 0.0320228 0.376734 0.5 0.502347 0.812667
335 1 0.0534631 0.604466 0.5 0.166243 0.931177
336 1 0.0324077 0.467949 0.5 -0.121112 0.770935
337 1 0.224433 0.418912 0.5 0.506459 0.415392
338 1 0.121188 0.383387 0.5 0.707895 0.304609
339 1 0.0982504 0.500602 0.5 0.224975 0.835897
340 1 0.186717 0.392205 0.5 0.18507 0.372771
341 1 0.991688 0.321484 0.5 0.394074 0.810426
342 1 0.064445 0.483707 0.5 0.192462 0.815059
343 1 0.947171 0.385633 0.5 0.101813 0.784591
344 1 0.147433 0.438415 0.5 -0.008693 0.804194
345 1 0.197204 0.503033 0.5 0.257096 0.861106
346 1 0.992443 0.643516 0.5 -0.0102035 0.774847
347 1 0.024978 0.541339 0.5 0.328051 0.940758
348 1 0.124068 0.552709 0.5 0.355799 0.684349
349 1 0.0915473 0.443573 0.5 0.203486 0.531313
350 1 0.0210518 0.27204 0.5 0.435498 0.776069
351 1 0.20386 0.440244 0.5 -0.0257788 0.898338
352 1 0.0991705 0.350831 0.5 0.491485 0.507511
353 1 0.0881345 0.339815 0.5 0.312696 0.530731
354 1 0.01333 0.595665 0.5 0.342243 0.594872
355 1 0.195537 0.528786 0.5 0.163474 0.662458
356 1 0.233625 0.25249 0.5 0.704029 0.59795
357 1 0.106955 0.532481 0.5 -0.140375 0.892855
358 1 0.982908 0.439744 0.5 0.22644 0.950123
359 1 0.971159 0.207382 0.5 0.423269 0.844387
360 1 0.0564631 0.614198 0.5 0.523868 0.580566
361 1 0.180406 0.427428 0.5 0.363724 0.679906
362 1 0.0671683 0.494459 0.5 0.419809 0.859973
363 1 0.101195 0.447724 0.5 -0.119311 0.921604
364 1 0.175081 0.435055 0.5 0.327021 0.775409
365 1 0.906141 0.182184 0.5 0.436755 0.549564
366 1 0.234631 0.417709 0.5 0.102862 0.332369
367 1 0.0703729 0.440158 0.5 0.015052 0.837616
368 1 0.156788 0.350927 0.5 -0.339289 -0.475608
369 1 0.0441493 0.416683 0.5 0.0205982 0.631123
370 1 0.114423 0.333365 0.5 0.379535 0.687907
371 1 0.205774 0.414137 0.5 0.0914964 0.924687
372 1 0.102752 0.578773 0.5 0.0142832 0.731457
373 1 0.158964 0.410877 0.5 0.258868 0.607454
374 1 0.0489584 0.324691 0.5 0.372951 0.71266
375 1 0.106775 0.207478 0.5 -0.185303 0.231477
376 1 0.0544929 0.335989 0.5 0.429916 0.401796
377 1 0.0432328 0.506863 0.5 0.236744 0.769049
378 1 0.17561 0.407755 0.5 0.0422178 0.848625
379 1 0.223155 0.527915 0.5 0.21513 0.908462
380 1 0.973013 0.40903 0.5 0.358471 0.687808
381 1 0.109661 0.543842 0.5 0.50732 0.397284
382 1 0.286029 0.129831 0.5 0.448145 0.779858
383 1 0.115387 0.618316 0.5 0.243441 0.911106
384 1 0.998376 0.696542 0.5 0.00776906 0.583145
385 1 0.0350388 0.386057 0.5 0.323958 0.782387
386 1 0.21945 0.519039 0.5 0.0874638 0.83818
387 1 0.184685 0.436126 0.5 0.606393 0.680819
388 1 0.239271 0.429353 0.5 0.444935 0.719132
389 1 0.966931 0.2796 0.5 0.341897 0.787408
390 1 0.0939505 0.584708 0.5 -0.0371003 0.717635
391 1 0.973705 0.131116 0.5 0.402257 0.487246
392 1 0.98983 0.486926 0.5 0.491923 0.791018
393 1 0.196671 0.568463 0.5 0.0689533 0.843837
394 1 0.83244 0.546667 0.5 -0.334393 0.243025
395 1 0.00119685 0.369741 0.5 0.24359 0.735611
396 1 0.137673 0.407459 0.5 -0.302636 0.820681
397 1 0.00122678 0.323984 0.5 0.330178 0.837773
398 1 0.148174 0.250687 0.5 -0.192183 0.54102
399 1 0.912388 0.520971 0.5 -0.428624 0.614583
400 1 0.232414 0.530232 0.5 0.184916 0.968162
401 1 0.0558615 0.291935 0.5 0.528876 0.374369
402 1 0.0997662 0.25477 0.5 0.1517 0.794047
403 1 0.887732 0.530404 0.5 -0.658052 0.752203
404 1 0.058169 0.327317 0.5 -0.0190192 0.0852633
405 1 0.0666162 0.365196 0.5 0.218829 0.731729
406 1 0.247117 0.578375 0.5 0.0360617 0.767351
407 1 0.0842382 0.514865 0.5 0.108205 0.777441
408 1 0.194109 0.437099 0.5 0.379542 0.795696
409 1 0.989712 0.295129 0.5 0.0458105 0.732525
410 1 0.0435612 0.332654 0.5 0.500661 0.675784
411 1 0.186271 0.567107 0.5 0.186869 0.905176
412 1 0.0491928 0.39811 0.5 0.540161 0.65516
413 1 0.909777 0.581435 0.5 -0.557816 -0.154445
414 1 0.0251969 0.449006 0.5 -0.168954 0.947942
415 1 0.251097 0.646174 0.5 0.229778 0.783063
416 1 0.899127 0.248021 0.5 0.324328 0.902102
417 1 0.979176 0.543404 0.5 0.146397 -0.22795
418 1 0.03807 0.296056 0.5 -0.128609 0.835128
419 1 0.0182308 0.633389 0.5 -0.0253613 0.877031
420 1 0.177272 0.445049 0.5 -0.00184781 0.84423
421 1 0.989913 0.265647 0.5 0.643989 0.699711
422 1 0.197074 0.476134 0.5 0.139705 0.927081
423 1 0.103655 0.359051 0.5 0.20748 0.335965
424 1 0.0987147 0.323911 0.5 0.648627 0.578316
425 1 0.062027 0.51167 0.5 0.162822 0.831529
426 1 0.0547149 0.482763 0.5 0.375301 0.874493
427 1 0.281416 0.434824 0.5 0.157204 0.584364
428 1 0.1137 0.459982 0.5 0.1207 0.717944
429 1 0.0202726 0.616126 0.5 0.339854 0.845161
430 1 0.0805746 0.572493 0.5 0.260571 0.940977
431 1 0.0976435 0.474373 0.5 -0.253104 0.857922
432 1 0.920397 0.315561 0.5 0.378642 0.821052
433 1 0.882958 0.253766 0.5 -0.0178024 0.567609
434 1 0.954875 0.403749 0.5 0.154122 0.578073
435 1 0.0267425 0.422455 0.5 0.277216 0.826112
436 1 0.807619 0.2377 0.5 0.558006 0.741232
437 1 0.287727 0.426955 0.5 0.154676 0.550097
438 1 0.21079 0.488082 0.5 0.428543 0.813049
439 1 0.159157 0.448789 0.5 0.212216 0.680441
440 1 0.91172 0.717402 0.5 -0.192623 -0.880376
441 1 0.0948493 0.550398 0.5 -0.0971019 0.325825
442 1 0.125006 0.432096 0.5 0.335229 0.617301
443 1 0.0710497 0.503747 0.5 0.0969038 0.795147
444 1 0.0630295 0.578998 0.5 0.312057 0.788938
445 1 0.853953 0.589821 0.5 0.0651495 0.0886853
446 1 0.2022 0.405348 0.5 -0.0612394 0.850916
447 1 0.242328 0.383134 0.5 -0.374472 0.710814
448 1 0.0367747 0.516687 0.5 0.356502 0.759842
449 1 0.0895209 0.536861 0.5 0.0807718 0.207632
450 1 0.106189 0.61602 0.5 0.347488 0.908474
451 1 0.0302239 0.562922 0.5 -0.100825 0.907801
452 1 0.145895 0.379432 0.5 0.270976 0.878559
453 1 0.103971 0.457256 0.5 -0.0958839 0.953122
454 1 0.0976528 0.399587 0.5 0.271267 0.945933
455 1 0.864361 0.579954 0.5 -0.773298 0.251488
456 1 0.0914127 0.304498 0.5 0.889188 0.434507
457 1 0.913901 0.213607 0.5 0.156899 0.447748
458 1 0.977629 0.0880496 0.5 0.199237 0.873514
459 1 0.113591 0.579699 0.5 0.367438 0.809856
460 1 0.977554 0.389736 0.5 0.429759 0.415039
461 1 0.103514 0.520607 0.5 -0.373493 0.806847
462 1 0.860989 0.286673 0.5 0.825282 0.484607
463 1 0.0800727 0.658438 0.5 0.315149 0.768765
464 1 0.0176956 0.390886 0.5 -0.186163 0.790937
465 1 0.053672 0.576462 0.5 0.323941 0.915592
466 1 0.105878 0.373701 0.5 0.256982 0.691433
467 1 0.0292737 0.524478 0.5 0.223387 0.946942
468 1 0.939344 0.254894 0.5 0.0733237 0.943524
469 1 0.154566 0.467301 0.5 -0.35919 0.714857
470 1 0.0108571 0.436137 0.5 -0.155948 0.902685
471 1 0.156949 0.439556 0.5 0.327247 0.875703
472 1 0.080926 0.405473 0.5 0.191511 0.672084
473 1 0.0377164 0.488563 0.5 0.200369 0.860481
474 1 0.13829 0.444876 0.5 -0.146523 0.842309
475 1 0.0406529 0.592564 0.5 0.376248 0.787421
476 1 0.254793 0.422387 0.5 -0.0699499 0.685419
477 1 0.200899 0.430518 0.5 -0.099736 0.954561
478 1 0.178406 0.417926 0.5 -0.115955 0.775716
479 1 0.222841 0.59368 0.5 0.569512 0.355485
480 1 0.138263 0.320145 0.5 0.675805 0.151114
481 1 0.867601 0.601248 0.5 -0.152865 0.463791
482 1 0.0341238 0.600305 0.5 0.515769 0.840112
483 1 0.333914 0.28639 0.5 0.339285 0.847711
484 1 0.134634 0.434003 0.5 -0.0988688 0.643183
485 1 0.105859 0.494121 0.5 0.0142769 0.619281
486 1 0.191876 0.519949 0.5 0.193742 0.901827
487 1 0.972376 0.3995 0.5 0.295744 0.281104
488 1 0.970548 0.42685 0.5 0.073838 0.94415
489 1 0.160267 0.276557 0.5 -0.69058 0.304174
490 1 0.0452045 0.426712 0.5 0.172024 0.651219
491 1 0.198131 0.195622 0.5 0.386102 0.817451
492 1 0.928248 0.473359 0.5 0.445574 0.840988
493 1 0.178961 0.57383 0.5 0.0204379 0.930378
494 1 0.0192534 0.400715 0.5 -0.348176 0.771493
495 1 0.103176 0.418282 0.5 -0.0214549 0.819405
496 1 0.249906 0.130654 0.5 -0.0704967 0.872784
497 1 0.918902 0.471719 0.5 0.468552 0.870378
498 1 0.0497118 0.185095 0.5 -0.371762 0.84333
499 1 0.0324035 0.442666 0.5 0.379187 0.703738
500 1 0.0594028 0.46466 0.5 0.276926 0.842699
501 1 0.986362 0.448708 0.5 0.441901 0.66523
502 1 0.181863 0.400622 0.5 0.381681 0.623682
503 1 0.0750749 0.42036 0.5 0.0572974 0.448136
504 1 0.166404 0.375944 0.5 0.000310602 0.139467
505 1 0.981361 0.153907 0.5 -0.235304 0.434142
506 1 0.284884 0.484292 0.5 0.1349 0.953274
507 1 0.210683 0.618835 0.5 0.0441219 0.309938
508 1 0.924067 0.29761 0.5 -0.0831032 0.980561
509 1 0.282876 0.445681 0.5 0.0351253 0.717195
510 1 0.213148 0.24814 0.5 0.0544496 0.988868
511 1 0.297105 0.460723 0.5 0.296263 0.80477
512 1 0.957249 0.33195 0.5 0.0332856 0.823441
513 1 0.0852025 0.462976 0.5 -0.16826 0.740429
514 1 0.052404 0.51035 0.5 0.122392 0.893147
515 1 0.237423 0.456444 0.5 0.547751 0.684849
516 1 0.93017 0.333885 0.5 0.28716 0.23692
517 1 0.974018 0.621703 0.5 -0.0720011 0.205129
518 1 0.188757 0.538045 0.5 0.491505 0.563622
519 1 0.0331959 0.574079 0.5 0.25704 0.681638
520 1 0.950428 0.51864 0.5 -0.0787148 0.11187
521 1 0.164358 0.496919 0.5 0.373832 0.75335
522 1 0.0851919 0.525232 0.5 0.065044 0.826897
523 1 0.78333 0.589651 0.5 -0.358588 0.165056
524 1 0.828861 0.215395 0.5 0.185754 0.949993
525 1 0.979553 0.579939 0.5 -0.453667 -0.219293
526 1 0.290326 0.467546 0.5 -0.0544056 0.832198
527 1 0.0802346 0.276853 0.5 0.830074 0.509106
528 1 0.0317981 0.347899 0.5 0.527103 0.516531
529 1 0.965827 0.307621 0.5 0.392551 0.802019
530 1 0.172613 0.460366 0.5 0.430489 0.399211
531 1 0.148638 0.410903 0.5 0.433744 0.675092
532 1 0.150592 0.141927 0.5 -0.1068 0.634411
533 1 0.995708 0.257736 0.5 0.160755 0.823084
534 1 0.232249 0.436852 0.5 0.401714 0.683316
535 1 0.225092 0.314752 0.5 0.120602 0.948064
536 1 0.206877 0.478698 0.5 0.193213 0.929482
537 1 0.0943031 0.3899 0.5 0.48464 0.684726
538 1 0.129313 0.359831 0.5 0.204668 0.0403084
539 1 0.857992 0.607285 0.5 -0.372012 0.304993
540 1 0.109004 0.4394 0.5 0.293168 0.834097
541 1 0.121142 0.326157 0.5 0.350534 0.740429
542 1 0.272358 0.471312 0.5 0.378014 0.869941
543 1 0.039584 0.49806 0.5 0.286781 0.849724
544 1 0.212697 0.525811 0.5 0.165486 0.944392
545 1 0.0158328 0.509777 0.5 -0.0216595 0.626165
546 1 0.850844 0.522754 0.5 0.27871 0.225329
547 1 0.933114 0.206211 0.5 0.0118977 0.730736
548 1 0.0890278 0.321596 0.5 0.469961 0.776176
549 1 0.0777769 0.551825 0.5 -0.675583 0.605198
550 1 0.037764 0.582617 0.5 0.369384 0.779262
551 1 0.110443 0.383226 0.5 0.79403 0.440243
552 1 0.211689 0.349049 0.5 0.18453 -0.264377
553 1 0.22096 0.489653 0.5 0.392434 0.851771
554 1 0.0185128 0.363919 0.5 0.15542 0.884658
555 1 0.192858 0.401677 0.5 0.245361 0.639597
556 1 0.896599 0.359166 0.5 0.366461 0.807675
557 1 0.00491947 0.416313 0.5 0.131888 0.920036
558 1 0.0450358 0.289146 0.5 0.305797 0.808723
559 1 0.989723 0.393328 0.5 0.0769886 0.791133
560 1 0.167366 0.535677 0.5 0.288699 0.939605
561 1 0.15572 0.561784 0.5 0.669547 0.672438
562 1 0.0283423 0.60787 0.5 0.277153 0.721228
563 1 0.0961398 0.464583 0.5 -0.129256 0.901171
564 1 0.186203 0.5014 0.5 0.562661 0.756231
565 1 0.131153 0.451152 0.5 0.203359 0.801997
566 1 0.235088 0.446588 0.5 0.421938 0.735589
567 1 0.00544093 0.57676 0.5 0.721702 0.479766
568 1 0.0030743 0.472709 0.5 0.254504 0.642305
569 1 0.0544322 0.390404 0.5 0.612624 0.645693
570 1 0.198067 0.540507 0.5 -0.0945526 0.945028
571 1 0.15404 0.362876 0.5 -0.413074 -0.323698
572 1 0.187305 0.472756 0.5 0.0226581 0.967253
573 1 0.892124 0.394011 0.5 0.0955071 0.840614
574 1 0.160762 0.421836 0.5 0.357681 0.768262
575 1 0.973733 0.244213 0.5 0.11157 0.931718
576 1 0.260666 0.405868 0.5 0.0168238 0.881169
577 1 0.0595513 0.437619 0.5 0.178278 0.947063
578 1 0.0812789 0.478246 0.5 0.137988 0.93302
579 1 0.949394 0.395636 0.5 0.239595 0.620939
580 1 0.233994 0.390133 0.5 0.19753 0.499941
581 1 0.135615 0.473474 0.5 0.310528 0.528744
582 1 0.135301 0.555224 0.5 0.218183 0.795203
583 1 0.951017 0.284228 0.5 0.264091 0.791049
584 1 0.135456 0.528012 0.5 0.303296 0.504572
585 1 0.982569 0.525094 0.5 0.0828156 -0.271164
586 1 0.109019 0.324417 0.5 0.816434 0.440481
587 1 0.935286 0.494069 0.5 0.410627 0.826805
588 1 0.152043 0.512827 0.5 0.167823 0.846525
589 1 0.955897 0.496534 0.5 0.659362 0.684404
590 1 0.740877 0.329017 0.5 0.415999 0.74304
591 1 0.987166 0.356298 0.5 0.44373 0.52739
592 1 0.00731011 0.48157 0.5 0.554853 0.793777
593 1 0.254146 0.44989 0.5 0.290066 0.608479
594 1 0.941397 0.2927 0.5 0.0178323 0.902834
595 1 0.138791 0.359185 0.5 0.345549 0.0455461
596 1 0.252199 0.22532 0.5 -0.160714 0.777604
597 1 0.00203981 0.536421 0.5 0.0338122 0.252252
598 1 0.0338231 0.50545 0.5 0.535062 0.797634
599 1 0.273327 0.183923 0.5 -0.0216253 0.161498
600 1 0.194118 0.466067 0.5 -0.0318554 0.988834
601 1 0.180728 0.35012 0.5 -0.206264 0.353992
602 1 0.170101 0.423627 0.5 0.0465927 0.677336
603 1 0.105453 0.467033 0.5 -0.327932 0.892449
604 1 0.922943 0.233907 0.5 -0.109445 0.834722
605 1 0.939616 0.392651 0.5 0.482234 0.631033
606 1 0.0157296 0.539557 0.5 0.125165 0.80138
607 1 0.0490014 0.368943 0.5 0.487253 0.751864
608 1 0.0353184 0.628556 0.5 0.0880561 0.889553
609 1 0.0797892 0.37649 0.5 -0.0324479 0.823286
610 1 0.170299 0.507658 0.5 0.521017 0.554219
611 1 0.89261 0.142985 0.5 0.412483 0.744082
612 1 0.14511 0.400849 0.5 0.241972 0.585659
613 1 0.967385 0.389733 0.5 0.732371 0.534591
614 1 0.182115 0.640573 0.5 0.0198088 0.811299
615 1 0.947671 0.440674 0.5 0.47512 0.730844
616 1 0.130944 0.264254 0.5 -0.145162 0.890348
617 1 0.115053 0.431762 0.5 0.425781 0.765735
618 1 0.89063 0.474904 0.5 0.652467 0.713839
619 1 0.0875933 0.592532 0.5 0.522047 0.837947
620 1 0.127076 0.500835 0.5 0.286584 0.912456
621 1 0.00570431 0.50905 0.5 0.358596 0.842369
622 1 0.0656412 0.26538 0.5 0.454667 0.600987
623 1 0.12919 0.535229 0.5 0.40628 0.51654
624 1 0.0502028 0.500458 0.5 0.0612486 0.905264
625 1 0.101417 0.510486 0.5 -0.145217 0.968395
626 1 0.206427 0.572471 0.5 0.0574354 0.806917
627 1 0.93619 0.410576 0.5 -0.0319732 0.941619
628 1 0.943313 0.432153 0.5 0.469593 0.511228
629 1 0.899202 0.108353 0.5 0.369828 0.844925
630 1 0.128655 0.565626 0.5 0.23759 0.823419
631 1 0.111458 0.350941 0.5 0.459911 0.463921
632 1 0.0633391 0.355277 0.5 0.368014 0.675399
633 1 0.116217 0.534997 0.5 0.424325 0.47544
634 1 0.006266 0.629821 0.5 0.123546 0.767419
635 1 0.130636 0.385372 0.5 0.622987 0.654862
636 1 0.141983 0.419168 0.5 -0.100372 0.7231
637 1 0.171888 0.581643 0.5 0.31597 0.709618
638 1 0.905513 0.155469 0.5 0.1491 0.866594
639 1 0.0899077 0.253208 0.5 0.0748407 0.806687
640 1 0.166217 0.215624 0.5 0.181681 0.966078
641 1 0.0314689 0.534019 0.5 0.342124 0.875528