ITEM: TIMESTEP
0
ITEM: NUMBER OF ATOMS
9304
ITEM: BOX BOUNDS pp pp pp
-5.8359999999999999e+01 5.8359999999999999e+01
-5.8359999999999999e+01 5.8359999999999999e+01
-5.0000000000000000e-01 5.0000000000000000e-01
ITEM: ATOMS id type xs ys zs c_002[1] c_002[2]
1 1 0.253779 0.681778 0.5 0.563246 0.0388691
2 1 0.530719 0.555621 0.5 0.386107 -0.0214144
3 1 0.845698 0.317388 0.5 -0.346908 -0.356237
4 1 0.126251 0.169501 0.5 -0.29365 -0.418988
5 1 0.971383 0.93173 0.5 0.0619023 -0.595455
6 1 0.878725 0.36613 0.5 0.475936 0.198297
7 1 0.558186 0.509085 0.5 0.494091 -0.436562
8 1 0.532701 0.266089 0.5 -0.478669 -0.826803
9 1 0.867549 0.978764 0.5 -0.342294 0.446608
10 1 0.0560729 0.711222 0.5 0.502249 0.244453
11 1 0.0182697 0.968763 0.5 -0.259942 0.374391
12 1 0.244576 0.00203781 0.5 0.0476716 0.360228
13 1 0.126001 0.336193 0.5 0.740556 0.385264
14 1 0.96074 0.384201 0.5 -0.115884 0.320997
15 1 0.715125 0.596967 0.5 -0.77161 0.238349
16 1 0.159513 0.521028 0.5 -0.685462 0.239572
17 1 0.294235 0.44116 0.5 0.347408 0.0803941
18 1 0.986671 0.722879 0.5 0.795346 0.00131944
19 1 0.126063 0.903058 0.5 0.251664 -0.31244
20 1 0.970887 0.696292 0.5 0.0203542 -0.103872
21 1 0.467198 0.576178 0.5 0.582815 -0.619431
22 1 0.0701089 0.398809 0.5 -0.0642601 0.0626212
23 1 0.570615 0.375926 0.5 -0.120028 -0.0218385
24 1 0.0565489 0.361251 0.5 -0.0803756 -0.387385
25 1 0.247241 0.166063 0.5 -0.132019 -0.219197
26 1 0.23107 0.62675 0.5 -0.581266 0.612767
27 1 0.00544595 0.561142 0.5 0.2595 -0.369847
28 1 0.421724 0.720394 0.5 0.399385 -0.212256
29 1 0.449345 0.622511 0.5 0.000180887 -0.0299032
30 1 0.756332 0.470275 0.5 -0.646974 -0.132359
31 1 0.958365 0.0845359 0.5 0.370297 0.187024
32 1 0.93722 0.374465 0.5 -0.0266505 0.566553
33 1 0.798875 0.0631282 0.5 0.612074 -0.362186
34 1 0.344781 0.863402 0.5 -0.442072 0.234518
35 1 0.312781 0.68196 0.5 -0.490459 0.754484
36 1 0.00892858 0.592882 0.5 -0.492402 0.520204
37 1 0.172017 0.475247 0.5 0.673378 -0.358054
38 1 0.485158 0.425696 0.5 0.802683 -0.331525
39 1 0.0518789 0.958408 0.5 -0.217305 -0.583319
40 1 0.663915 0.00727616 0.5 0.422266 -0.250685
41 1 0.861047 0.302498 0.5 0.555355 0.00675284
42 1 0.190629 0.360439 0.5 -0.0664225 0.0765692
43 1 0.910799 0.0333443 0.5 0 0
44 1 0.143889 0.0356429 0.5 -0.867583 -0.216661
45 1 0.693771 0.134781 0.5 -0.0453379 -0.377088
46 1 0.936545 0.634192 0.5 -0.434597 -0.585146
47 1 0.606961 0.596787 0.5 0.258067 0.329864
48 1 0.854454 0.0153543 0.5 -0.457271 0.147184
49 1 0.131922 0.77853 0.5 -0.0840342 -0.115411
50 1 0.0593991 0.741915 0.5 0.556901 0.412499
51 1 0.852343 0.716252 0.5 0.123075 0.242669
52 1 0.775767 0.21446 0.5 0.211302 0.480308
53 1 0.550861 0.293841 0.5 -0.0650942 -0.215256
54 1 0.706919 0.723464 0.5 0.714787 0.101885
55 1 0.161815 0.477503 0.5 0.640068 -0.700488
56 1 0.857066 0.725961 0.5 0.414973 0.495189
57 1 0.443982 0.764142 0.5 0.280496 -0.280298
58 1 0.746763 0.786479 0.5 0.88774 0.23326
59 1 0.102171 0.0896074 0.5 0.0378736 0.53549
60 1 0.83828 0.506549 0.5 -0.313531 0.634729
61 1 0.0288417 0.434922 0.5 -0.196836 0.126146
62 1 0.736769 0.128724 0.5 -0.84632 0.332196
63 1 0.267149 0.970941 0.5 -0.359326 0.241322
64 1 0.190896 0.442018 0.5 -0.328451 -0.65007
65 1 0.213246 0.669064 0.5 -0.405652 -0.499745
66 1 0.00484806 0.29362 0.5 -0.768668 -0.0208102
67 1 0.0500874 0.807734 0.5 0.313884 -0.864829
68 1 0.714823 0.964823 0.5 -0.0667412 -0.460437
69 1 0.283658 0.803168 0.5 -0.113772 -0.181196
70 1 0.062115 0.525072 0.5 0.409556 0.087478
71 1 0.971275 0.987083 0.5 -0.0433094 0.415891
72 1 0.121286 0.944177 0.5 0.77007 0.0826628
73 1 0.651186 0.870645 0.5 -0.498392 0.611995
74 1 0.107432 0.151527 0.5 -0.218866 0.423643
75 1 0.734658 0.153463 0.5 -0.0415729 0.236838
76 1 0.95025 0.265748 0.5 0.488503 -0.14278
77 1 0.113077 0.699424 0.5 0.100071 0.694768
78 1 0.473112 0.168252 0.5 0.220797 -0.255192
79 1 0.303728 0.830934 0.5 -0.0397153 -0.071259
80 1 0.517566 0.290511 0.5 -0.0924366 0.165674
81 1 0.762252 0.988321 0.5 0.453694 -0.272044
82 1 0.939074 0.397992 0.5 0.411559 0.218274
83 1 0.925302 0.727724 0.5 -0.100612 -0.307142
84 1 0.447444 0.979457 0.5 0.0133563 0.146536
85 1 0.100042 0.803891 0.5 0.227083 -0.0784737
86 1 0.962057 0.515495 0.5 0.0933826 0.320787
87 1 0.740773 0.794296 0.5 0.299845 0.708233
88 1 0.297722 0.621129 0.5 -0.333535 -0.216704
89 1 0.10896 0.240103 0.5 0.343786 -0.0615638
90 1 0.0608341 0.702178 0.5 0.611609 0.629149
91 1 0.730172 0.620388 0.5 -0.58901 0.575296
92 1 0.872298 0.415128 0.5 0.101515 0.686056
93 1 0.958371 0.355021 0.5 0.308957 0.307368
94 1 0.10416 0.0641481 0.5 0.337888 -0.646677
95 1 0.613642 0.212134 0.5 0.284225 -0.0822397
96 1 0.231948 0.888505 0.5 0.754769 -0.304645
97 1 0.671777 0.621351 0.5 -0.620014 -0.576448
98 1 0.376372 0.366888 0.5 -0.225327 -0.633937
99 1 0.506127 0.00232376 0.5 -0.723693 0.499933
100 1 0.406378 0.651912 0.5 -0.0660675 -0.688199
101 1 0.770431 0.249379 0.5 -0.142786 -0.119767
102 1 0.350115 0.568974 0.5 0.540062 0.0999534
103 1 0.360048 0.739251 0.5 -0.0951501 -0.230416
104 1 0.901486 0.0842583 0.5 0.005123 -0.470325
105 1 0.133072 0.715963 0.5 0.0455992 0.414597
106 1 0.142657 0.0459813 0.5 -0.672677 -0.326813
107 1 0.850024 0.0638962 0.5 0.26071 0.154214
108 1 0.0500405 0.253156 0.5 0.381637 0.796736
109 1 0.725126 0.26898 0.5 0.537569 0.629059
110 1 0.801756 0.559089 0.5 0.000314284 0.623537
111 1 0.206364 0.357916 0.5 -0.109545 0.400661
112 1 0.301852 0.668876 0.5 -0.233443 0.395157
113 1 0.454407 0.280174 0.5 -0.549988 0.309461
114 1 0.213922 0.842017 0.5 -0.0257116 0.08687
115 1 0.123695 0.398052 0.5 -0.544402 0.751306
116 1 0.994816 0.901845 0.5 0.614128 -0.550566
117 1 0.0743004 0.580631 0.5 0.492007 -0.352216
118 1 0.893624 0.744544 0.5 -0.493335 0.425461
119 1 0.842718 0.0992546 0.5 0.465301 -0.26424
120 1 0.555762 0.521097 0.5 0.180086 -0.297462
121 1 0.238182 0.878577 0.5 0.771558 -0.132376
122 1 0.842158 0.687378 0.5 -0.172208 0.362933
123 1 0.900571 0.86817 0.5 0.351808 -0.854816
124 1 0.0730614 0.529091 0.5 0.0996771 -0.158666
125 1 0.903551 0.607248 0.5 -0.256305 0.44085
126 1 0.0380277 0.594367 0.5 0.109618 0.222399
127 1 0.916706 0.633278 0.5 -0.599669 -0.228245
128 1 0.190339 0.341474 0.5 0.873512 0.214226
129 1 0.0763339 0.569484 0.5 0.407382 -0.126028
130 1 0.288224 0.212427 0.5 0.520764 0.435315
131 1 0.154302 0.459142 0.5 0.335315 -0.315349
132 1 0.816939 0.911951 0.5 -0.0165665 0.610425
133 1 0.0657819 0.0383478 0.5 0.543892 0.575216
134 1 0.194326 0.912607 0.5 0.232173 -0.402309
135 1 0.507716 0.758129 0.5 0.129738 0.651702
136 1 0.956326 0.708287 0.5 0 0
137 1 0.908549 0.626649 0.5 0.113321 -0.333064
138 1 0.777863 0.577053 0.5 -0.729736 -0.167443
139 1 0.990456 0.678087 0.5 -0.0618072 0.383656
140 1 0.792643 0.942743 0.5 -0.254412 0.822628
141 1 0.622386 0.939248 0.5 -0.731285 -0.631041
142 1 0.55916 0.830054 0.5 -0.108437 -0.675325
143 1 0.989044 0.808567 0.5 0.0593921 -0.750555
144 1 0.830841 0.226628 0.5 0.0774831 -0.639691
145 1 0.126902 0.681228 0.5 0.189733 -0.167965
146 1 0.0815799 0.660742 0.5 -0.226852 -0.754833
147 1 0.044872 0.606415 0.5 0.142683 0.26814
148 1 0.543114 0.652171 0.5 0.405154 -0.0302876
149 1 0.872408 0.157198 0.5 0 0
150 1 0.135527 0.467674 0.5 0.151536 0.165074
151 1 0.0877586 0.732628 0.5 0.360927 -0.549061
152 1 0.2974 0.968484 0.5 -0.590446 -0.18411
153 1 0.0577466 0.344154 0.5 0.54507 0.592437
154 1 0.167668 0.145561 0.5 0.00843618 -0.00293168
155 1 0.621839 0.880613 0.5 0.382226 0.266735
156 1 0.122618 0.469114 0.5 0.694336 -0.151536
157 1 0.130103 0.524678 0.5 -0.270569 -0.688374
158 1 0.81335 0.488735 0.5 -0.789732 -0.115503
159 1 0.547185 0.600728 0.5 -0.247469 -0.854047
160 1 0.991337 0.61722 0.5 0.490185 -0.246796
161 1 0.887218 0.823305 0.5 -0.00731243 -0.11356
162 1 0.706521 0.213267 0.5 -0.296648 0.140783
163 1 0.821176 0.98455 0.5 -0.00212356 0.192717
164 1 0.0709562 0.382204 0.5 0.11962 0.628839
165 1 0.104042 0.392386 0.5 0.513138 0.708447
166 1 0.989 0.850116 0.5 0.256052 0.543413
167 1 0.988675 0.361569 0.5 -0.440974 -0.374928
168 1 0.97506 0.665766 0.5 0.353126 0.469299
169 1 0.520445 0.968942 0.5 0.55657 -0.220161
170 1 0.469981 0.875291 0.5 0.66756 0.711328
171 1 0.236646 0.711367 0.5 -0.698728 -0.324838
172 1 0.171796 0.0934507 0.5 -0.399443 -0.396907
173 1 0.915384 0.844307 0.5 -0.289742 -0.843017
174 1 0.812194 0.691172 0.5 -0.105175 -0.914676
175 1 0.804108 0.955631 0.5 -0.402862 0.855842
176 1 0.22233 0.8261 0.5 0.00290444 -0.328716
177 1 0.499939 0.733841 0.5 0.600923 0.304881
178 1 0.958316 0.544177 0.5 -0.0483953 -0.16189
179 1 0.217555 0.42254 0.5 0.452342 -0.026284
180 1 0.284665 0.428458 0.5 0.281645 0.265836
181 1 0.396409 0.684655 0.5 0.617973 -0.644877
182 1 0.780911 0.557952 0.5 0.30613 0.452923
183 1 0.548929 0.566011 0.5 0.179465 0.386018
184 1 0.212816 0.0785509 0.5 0.180702 0.338734
185 1 0.827806 0.774184 0.5 -0.819 0.286449
186 1 0.944385 0.226772 0.5 -0.323043 0.24304
187 1 0.490672 0.847432 0.5 -0.157242 -0.33105
188 1 0.268051 0.961049 0.5 -0.498514 -0.0327292
189 1 0.937827 0.0196857 0.5 -0.527482 0.535147
190 1 0.516894 0.864105 0.5 0.328234 0.300815
191 1 0.114073 0.228096 0.5 0.599635 -0.106924
192 1 0.68795 0.66648 0.5 0.384479 -0.267934
193 1 0.211233 0.462795 0.5 0.465476 0.248608
194 1 0.135027 0.113206 0.5 -0.174096 0.133376
195 1 0.98809 0.0115021 0.5 -0.422374 -0.21369
196 1 0.256821 0.967322 0.5 -0.522429 0.683047
197 1 0.764907 0.620595 0.5 0.0214078 0.051209
198 1 0.348759 0.67525 0.5 -0.0592364 0.126385
199 1 0.134235 0.860107 0.5 0.477859 0.286256
200 1 0.393965 0.87197 0.5 -0.132877 0.416593
201 1 0.102209 0.30354 0.5 0.437628 -0.33284
202 1 0.874024 0.302849 0.5 0.762677 0.248401
203 1 0.797433 0.282532 0.5 -0.611638 0.732319
204 1 0.263874 0.431744 0.5 -0.490339 -0.579516
205 1 0.0142244 0.567662 0.5 0.349333 0.303644
206 1 0.279243 0.0612709 0.5 -0.162153 0.265977
207 1 0.904517 0.577588 0.5 -0.320321 -0.427
208 1 0.727506 0.125127 0.5 -0.622915 0.430793
209 1 0.762695 0.355739 0.5 -0.541217 0.0429212
210 1 0.251804 0.404227 0.5 -0.146649 -0.0587812
211 1 0.284168 0.567191 0.5 0.83292 -0.326957
212 1 0.58537 0.991714 0.5 -0.204144 0.000951788
213 1 0.293315 0.220628 0.5 0.153947 0.27547
214 1 0.1565 0.129676 0.5 -0.678422 0.173742
215 1 0.593287 0.628722 0.5 -0.123736 0.111422
216 1 0.678363 0.464287 0.5 -0.523684 -0.560144
217 1 0.127841 0.15622 0.5 -0.120601 -0.0629933
218 1 0.187529 0.678176 0.5 -0.153831 0.352625
219 1 0.393483 0.760775 0.5 -0.360597 -0.457221
220 1 0.131406 0.140274 0.5 -0.224825 0.854843
221 1 0.223187 0.600548 0.5 -0.64515 -0.293065
222 1 0.0509833 0.659457 0.5 -0.0920047 -0.172475
223 1 0.047675 0.176551 0.5 -0.43262 0.287085
224 1 0.50673 0.834668 0.5 -0.30606 -0.447721
225 1 0.148722 0.451696 0.5 0.774579 -0.417791
226 1 0.526559 0.348378 0.5 0.247604 -0.153044
227 1 0.375296 0.65361 0.5 0.505759 0.124597
228 1 0.260626 0.744132 0.5 0.445719 0.466859
229 1 0.207002 0.562292 0.5 -0.109151 0.670238
230 1 0.7952 0.229707 0.5 -0.516798 -0.180839
231 1 0.18115 0.0260489 0.5 -0.188234 0.73554
232 1 0.907336 0.210983 0.5 -0.458794 0.267592
233 1 0.732119 0.241287 0.5 -0.439567 0.291305
234 1 0.557755 0.880119 0.5 -0.258879 -0.270924
235 1 0.146639 0.553605 0.5 0.0970403 0.634878
236 1 0.324527 0.991347 0.5 0.297193 0.932196
237 1 0.509851 0.283825 0.5 0.0411607 -0.899067
238 1 0.0290268 0.628369 0.5 -0.0462912 0.0611045
239 1 0.0953267 0.634033 0.5 0.146368 -0.448576
240 1 0.41439 0.177441 0.5 0.217117 -0.853693
241 1 0.180812 0.864949 0.5 0.521114 -0.754019
242 1 0.485229 0.218302 0.5 0.151862 -0.157125
243 1 0.270896 0.287331 0.5 0.473603 0.731931
244 1 0.825916 0.975104 0.5 0.605291 -0.313869
245 1 0.548312 0.576214 0.5 -0.155857 0.266545
246 1 0.246683 0.850715 0.5 -0.0116042 -0.232473
247 1 0.722248 0.359301 0.5 -0.742095 -0.410212
248 1 0.0784263 0.981275 0.5 -0.0663721 0.297329
249 1 0.809697 0.620168 0.5 -0.666738 0.0508151
250 1 0.624856 0.23855 0.5 0.301123 -0.212097
251 1 0.5047 0.439478 0.5 -0.624466 -0.1818
252 1 0.339003 0.725521 0.5 -0.238899 -0.518532
253 1 0.925724 0.887225 0.5 -0.750005 -0.414464
254 1 0.0390287 0.982037 0.5 -0.129883 0.23782
255 1 0.162187 0.369021 0.5 0.242985 -0.686044
256 1 0.181037 0.521788 0.5 0.0181426 -0.0928058
257 1 0.803186 0.104883 0.5 -0.11723 0.147045
258 1 0.203978 0.389372 0.5 0.442507 0.752233
259 1 0.437959 0.961734 0.5 -0.509241 -0.247853
260 1 0.214474 0.659006 0.5 -0.801005 -0.0934365
261 1 0.981558 0.409841 0.5 -0.831865 -0.333957
262 1 0.220915 0.62236 0.5 -0.736906 0.498465
263 1 0.884468 0.708349 0.5 -0.717983 0.190004
264 1 0.0952582 0.0252253 0.5 -0.388944 0.187777
265 1 0.963012 0.406346 0.5 0.176224 0.151901
266 1 0.0816437 0.741857 0.5 0.724938 -0.163759
267 1 0.146893 0.913898 0.5 0.200533 -0.193667
268 1 0.213586 0.305006 0.5 0.0273502 0.565903
269 1 0.769651 0.0531389 0.5 -0.0452442 0.482516
270 1 0.670358 0.997129 0.5 -0.0168757 -0.512732
271 1 0.374374 0.299584 0.5 0 0
272 1 0.621674 0.639879 0.5 0.675118 0.570769
273 1 0.779336 0.586951 0.5 -0.760143 -0.133925
274 1 0.355064 0.758119 0.5 -0.659428 -0.597642
275 1 0.68144 0.225617 0.5 -0.583716 -0.318211
276 1 0.967991 0.214568 0.5 0.373884 -0.465401
277 1 0.505096 0.981435 0.5 -0.627945 -0.516473
278 1 0.129554 0.817482 0.5 0.479773 -0.373646
279 1 0.221333 0.0224428 0.5 0.347213 -0.124161
280 1 0.649326 0.953096 0.5 -0.673781 -0.573221
281 1 0.00496324 0.632901 0.5 0.516823 0.214253
282 1 0.278315 0.5561 0.5 -0.0259196 0.456708
283 1 0.470676 0.566969 0.5 -0.165697 -0.50453
284 1 0.326705 0.848727 0.5 0.774821 0.234719
285 1 0.189517 0.513042 0.5 0.529338 0.404811
286 1 0.061798 0.467389 0.5 -0.802944 -0.343581
287 1 0.147271 0.877722 0.5 0.275589 0.140894
288 1 0.0496108 0.0561134 0.5 -0.256258 0.572504
289 1 0.729412 0.719816 0.5 0.229928 -0.0766909
290 1 0.614444 0.244352 0.5 -0.349872 -0.0692347
291 1 0.123825 0.146859 0.5 0.0559997 0.619532
292 1 0.116956 0.997573 0.5 0.446386 0.164198
293 1 0.755277 0.150978 0.5 0.124084 -0.492832
294 1 0.305681 0.430852 0.5 0.249816 0.487812
295 1 0.610199 0.624979 0.5 -0.198168 0.0828603
296 1 0.41134 0.186444 0.5 0.0969729 -0.683744
297 1 0.0344732 0.942823 0.5 -0.638726 0.195001
298 1 0.890796 0.891182 0.5 0.60935 -0.353641
299 1 0.00797594 0.814 0.5 0.226937 -0.643808
300 1 0.779415 0.908301 0.5 -0.228219 -0.167431
301 1 0.142278 0.970599 0.5 0.723694 -0.509089
302 1 0.984795 0.752865 0.5 0.377582 -0.415414
303 1 0.173543 0.043677 0.5 -0.319578 -0.504117
304 1 0.458219 0.454742 0.5 0.0116155 0.25016
305 1 0.45062 0.709759 0.5 -0.395181 0.188538
306 1 0.741229 0.37991 0.5 -0.285449 -0.0930683
307 1 0.0231068 0.210286 0.5 0.0835394 0.808864
308 1 0.0131148 0.925054 0.5 -0.263639 0.440754
309 1 0.0657078 0.241356 0.5 0.213384 0.20999
310 1 0.16899 0.681197 0.5 -0.69562 -0.164731
311 1 0.0371113 0.892994 0.5 0.892526 -0.343101
312 1 0.103375 0.626658 0.5 0.621168 -0.229224
313 1 0.794496 0.952675 0.5 -0.573103 0.365121
314 1 0.506708 0.673476 0.5 -0.0211575 0.528128
315 1 0.707826 0.777189 0.5 0.52338 -0.0870464
316 1 0.568637 0.867663 0.5 0.0712912 -0.740728
317 1 0.227971 0.27778 0.5 -0.468976 0.524059
318 1 0.180252 0.70739 0.5 -0.673422 -0.137094
319 1 0.637973 0.757327 0.5 0.27124 -0.224444
320 1 0.693819 0.368984 0.5 -0.625599 0.524285
321 1 0.819712 0.815534 0.5 -0.644219 0.631942
322 1 0.951973 0.795573 0.5 0.0487862 0.298021
323 1 0.651897 0.880887 0.5 -0.347114 -0.00606926
324 1 0.734077 0.843794 0.5 0.681943 -0.540033
325 1 0.657171 0.394862 0.5 0.0559507 0.523526
326 1 0.34768 0.731435 0.5 -0.391686 -0.438214
327 1 0.753156 0.796501 0.5 0.0537848 0.293336
328 1 0.531978 0.984204 0.5 -0.637322 -0.634544
329 1 0.693394 0.498597 0.5 -0.479904 -0.279195
330 1 0.989162 0.911198 0.5 0.419333 0.278488
331 1 0.354522 0.582164 0.5 0.331313 0.320907
332 1 0.966812 0.978094 0.5 -0.0546148 0.105246
333 1 0.115662 0.848572 0.5 -0.676465 -0.583628
334 1 0.838239 0.707712 0.5 0.0744913 0.0309338
335 1 0.463602 0.950409 0.5 0.437074 0.144837
336 1 0.168289 0.877777 0.5 0.0979935 -0.745781
337 1 0.852795 0.186879 0.5 -0.250707 -0.579629
338 1 0.395027 0.558452 0.5 -0.223555 -0.399628
339 1 0.883831 0.518918 0.5 -0.0673486 0.515677
340 1 0.922177 0.851646 0.5 0 0
341 1 0.66915 0.870941 0.5 -0.710648 0.415555
342 1 0.905041 0.56623 0.5 -0.501463 0.141385
343 1 0.0650864 0.856595 0.5 -0.224402 0.35479
344 1 0.925718 0.38931 0.5 0.498868 0.0865383
345 1 0.748492 0.0305489 0.5 -0.505922 -0.071213
346 1 0.637601 0.714574 0.5 0.0253584 -0.133853
347 1 0.713313 0.242982 0.5 -0.711464 0.0486331
348 1 0.237281 0.32231 0.5 -0.15482 0.619041
349 1 0.0478759 0.766435 0.5 -0.195463 0.842635
350 1 0.60023 0.898964 0.5 0.0447113 0.524272
351 1 0.208038 0.483297 0.5 0.687179 0.382007
352 1 0.820858 0.0538343 0.5 -0.511053 -0.587563
353 1 0.375305 0.413101 0.5 0.206362 -0.0799232
354 1 0.843295 0.32755 0.5 0.0431522 -0.202911
355 1 0.578728 0.711172 0.5 -0.511509 -0.209123
356 1 0.164536 0.124525 0.5 -0.733422 0.213599
357 1 0.19248 0.743122 0.5 -0.284587 0.171227
358 1 0.684513 0.0752017 0.5 0.351216 0.442193
359 1 0.992005 0.237284 0.5 -0.612268 0.464393
360 1 0.0260264 0.162735 0.5 0.00689645 0.242774
361 1 0.451153 0.667158 0.5 -0.507944 -0.485936
362 1 0.0250543 0.939703 0.5 -0.436331 0.386083
363 1 0.0548393 0.647455 0.5 0.0128028 -0.907605
364 1 0.433201 0.0184759 0.5 0.193858 0.210133
365 1 0.68996 0.0298939 0.5 -0.924054 -0.301027
366 1 0.724961 0.959125 0.5 -0.479395 0.381339
367 1 0.0341972 0.84253 0.5 -0.0301703 0.580223
368 1 0.84464 0.700316 0.5 -0.166156 0.43018
369 1 0.18809 0.096886 0.5 0.358999 -0.127554
370 1 0.0801403 0.670802 0.5 -0.25503 -0.525136
371 1 0.428701 0.635676 0.5 -0.368521 -0.4057
372 1 0.577942 0.213952 0.5 0.233207 -0.370908
373 1 0.737426 0.569371 0.5 0 0
374 1 0.114523 0.749054 0.5 0.755288 -0.342698
375 1 0.573265 0.91248 0.5 0.248999 -0.0888235
376 1 0.19359 0.0468936 0.5 -0.519393 -0.507295
377 1 0.27441 0.604174 0.5 0.532719 -0.229569
378 1 0.364592 0.302728 0.5 -0.503641 -0.651133
379 1 0.884584 0.585048 0.5 -0.282619 -0.506713
380 1 0.400733 0.217816 0.5 -0.412524 0.0073742
381 1 0.39496 0.0346859 0.5 -0.00865108 0.460312
382 1 0.0338434 0.101309 0.5 0.274993 0.406761
383 1 0.981415 0.0906066 0.5 -0.265961 -0.509139
384 1 0.24244 0.0747435 0.5 0.58764 -0.0673894
385 1 0.892146 0.0577913 0.5 0.0804235 -0.450821
386 1 0.202655 0.961493 0.5 0.162874 0.371463
387 1 0.533633 0.436726 0.5 -0.677121 0.156717
388 1 0.21872 0.219927 0.5 0.428031 0.16983
389 1 0.791056 0.183354 0.5 0.496036 -0.646712
390 1 0.325577 0.244167 0.5 0.357986 -0.0680459
391 1 0.690873 0.349002 0.5 0.291662 0.402636
392 1 0.337662 0.00155946 0.5 0.167767 0.110407
393 1 0.154333 0.106346 0.5 -0.615775 0.301857
394 1 0.558724 0.897729 0.5 0.453533 -0.141042
395 1 0.785393 0.481627 0.5 -0.498332 -0.720585
396 1 0.270621 0.906241 0.5 -0.403379 -0.212007
397 1 0.143153 0.943254 0.5 0.618487 -0.315198
398 1 0.488962 0.19887 0.5 -0.717419 -0.0109795
399 1 0.346236 0.612942 0.5 0.449148 -0.67774
400 1 0.792866 0.0721808 0.5 0.952836 0.134175
401 1 0.212755 0.639282 0.5 -0.901857 0.357921
402 1 0.375734 0.866816 0.5 0.515861 0.277341
403 1 0.120867 0.528343 0.5 -0.531209 -0.42423
404 1 0.0674646 0.993067 0.5 -0.156579 -0.54667
405 1 0.324395 0.964454 0.5 0.146748 0.0502168
406 1 0.860408 0.194793 0.5 -0.133322 -0.248859
407 1 0.663646 0.707403 0.5 -0.351373 0.179603
408 1 0.0662196 0.713629 0.5 0.150507 0.785224
409 1 0.664624 0.899719 0.5 0.212039 0.689612
410 1 0.926878 0.65374 0.5 0.775675 0.111127
411 1 0.589757 0.265417 0.5 -0.15944 -0.0213297
412 1 0.264396 0.533042 0.5 -0.770015 -0.247598
413 1 0.624871 0.759718 0.5 -0.295892 -0.18258
414 1 0.249151 0.0376618 0.5 -0.606233 0.272193
415 1 0.503318 0.605558 0.5 0.088481 0.526359
416 1 0.184419 0.128694 0.5 0.579036 0.288794
417 1 0.0314589 0.0888621 0.5 -0.248814 0.116975
418 1 0.38739 0.999067 0.5 0.64335 0.699918
419 1 0.109051 0.690799 0.5 0.0804184 -0.153675
420 1 0.339828 0.972286 0.5 0.425204 0.621351
421 1 0.0205642 0.77198 0.5 0.686793 -0.507662
422 1 0.345119 0.00795446 0.5 0.0885737 -0.287925
423 1 0.178341 0.740223 0.5 0.190714 0.515051
424 1 0.299123 0.901136 0.5 -0.504085 0.0420253
425 1 0.319658 0.0255406 0.5 0.0981474 -0.337434
426 1 0.203599 0.0849975 0.5 0.228308 -0.0796226
427 1 0.756003 0.945294 0.5 -0.149158 0.0636587
428 1 0.0496076 0.991103 0.5 -0.505697 -0.710702
429 1 0.941086 0.185881 0.5 0.212378 -0.137744
430 1 0.276926 0.318578 0.5 -0.0505921 0.16684
431 1 0.61376 0.112674 0.5 0.419591 0.390459
432 1 0.999735 0.972146 0.5 -0.604027 0.541986
433 1 0.153261 0.992085 0.5 -0.0732983 0.306196
434 1 0.837905 0.974123 0.5 0.551578 -0.602118
435 1 0.283495 0.233217 0.5 -0.108212 0.343735
436 1 0.943354 0.642536 0.5 0.0809734 -0.0530413
437 1 0.381667 0.615928 0.5 0.246489 0.435185
438 1 0.341298 0.981897 0.5 0.0392151 0.185431
439 1 0.943724 0.427727 0.5 -0.0153264 -0.938143
440 1 0.139352 0.817087 0.5 0.877244 -0.255621
441 1 0.256328 0.764043 0.5 -0.659104 0.46468
442 1 0.964798 0.85881 0.5 -0.00642571 -0.241533
443 1 0.99638 0.118891 0.5 0.0860568 0.675324
444 1 0.546024 0.192818 0.5 0.182387 -0.502691
445 1 0.119408 0.20133 0.5 -0.213755 0.146825
446 1 0.195741 0.730403 0.5 -0.651321 -0.660305
447 1 0.044181 0.530809 0.5 0.402352 0.159235
448 1 0.469969 0.592529 0.5 0.360266 -0.539453
449 1 0.131951 0.324432 0.5 0.519373 -0.0667035
450 1 0.950732 0.12534 0.5 -0.375546 -0.0858317
451 1 0.359531 0.110428 0.5 -0.158917 -0.0570274
452 1 0.0646401 0.946245 0.5 0.393769 0.233117
453 1 0.00104051 0.0529817 0.5 0.295002 0.799549
454 1 0.58191 0.851559 0.5 -0.0184062 -0.545845
455 1 0.429384 0.15057 0.5 0.457555 0.36628
456 1 0.745832 0.133689 0.5 -0.21331 0.607561
457 1 0.047289 0.450076 0.5 -0.274927 -0.170752
458 1 0.815699 0.116646 0.5 0 0
459 1 0.890777 0.814391 0.5 -0.198149 0.00229171
460 1 0.955383 0.69851 0.5 -0.208528 -0.504385
461 1 0.0279083 0.581 0.5 -0.0884324 0.408916
462 1 0.598861 0.389963 0.5 0.065615 0.0433953
463 1 0.599167 0.813516 0.5 0.372711 0.444257
464 1 0.754441 0.407834 0.5 0.473276 0.0553392
465 1 0.00582741 0.120861 0.5 0.0665949 0.904327
466 1 0.98847 0.098081 0.5 0.720979 -0.227214
467 1 0.19909 0.774598 0.5 -0.265238 0.781329
468 1 0.941428 0.133177 0.5 -0.492579 0.351862
469 1 0.396628 0.881897 0.5 0.0740453 -0.0326157
470 1 0.149274 0.951571 0.5 0 0
471 1 0.126034 0.0255158 0.5 -0.85137 -0.116348
472 1 0.017507 0.753768 0.5 0.774871 -0.478247
473 1 0.0579862 0.0611013 0.5 -0.0198381 -0.252691
474 1 0.120097 0.868029 0.5 0.0891128 0.121018
475 1 0.918507 0.3153 0.5 0.142958 0.436628
476 1 0.470714 0.621994 0.5 0.748004 0.0114254
477 1 0.705385 0.133979 0.5 0.02376 -0.0509771
478 1 0.406614 0.199095 0.5 -0.24485 -0.194279
479 1 0.343295 0.223631 0.5 0.212235 0.164306
480 1 0.04223 0.40305 0.5 -0.591243 -0.19883
481 1 0.811345 0.824036 0.5 -0.331346 0.277705
482 1 0.400789 0.768483 0.5 0.110734 -0.432835
483 1 0.000232798 0.23121 0.5 -0.499385 0.277881
484 1 0.312377 0.019256 0.5 0.37307 0.0693738
485 1 0.285515 0.00156967 0.5 0.411031 0.0413565
486 1 0.957197 0.176613 0.5 0.685782 0.205891
487 1 0.417456 0.203044 0.5 -0.463328 0.63658
488 1 0.644169 0.23121 0.5 -0.262709 0.353355
489 1 0.758993 0.935416 0.5 -0.373925 -0.380749
490 1 0.20099 0.29217 0.5 -0.195449 -0.152995
491 1 0.177419 0.87517 0.5 0.403214 -0.704894
492 1 0.392997 0.381329 0.5 0.250096 0.0415358
493 1 0.408786 0.476209 0.5 0.0636758 -0.417123
494 1 0.762678 0.968009 0.5 0.206838 0.209106
495 1 0.595415 0.878845 0.5 -0.5612 -0.276159
496 1 0.452118 0.987689 0.5 0.599229 -0.21924
497 1 0.0922428 0.789693 0.5 -0.767538 -0.406062
498 1 0.058969 0.682391 0.5 -0.19174 0.366145
499 1 0.0965461 0.971836 0.5 0.575744 -0.277318
500 1 0.107206 0.0280516 0.5 -0.519682 0.641343
501 1 0.632173 0.98728 0.5 -0.0198855 0.229358
502 1 0.874814 0.741694 0.5 -0.25178 -0.0601244
503 1 0.427199 0.875189 0.5 0.322546 0.587346
504 1 0.182504 0.0890275 0.5 0.289596 -0.528705
505 1 0.2826 0.175675 0.5 -0.196657 0.0418932
506 1 0.663343 0.660509 0.5 -0.630745 0.0590377
507 1 0.306194 0.26712 0.5 0.317241 0.15792
508 1 0.760388 0.494586 0.5 0.233114 -0.498833
509 1 0.723281 0.864665 0.5 -0.0866382 0.447481
510 1 0.346484 0.9649 0.5 0.384512 0.792095
511 1 0.181528 0.113687 0.5 -0.408674 -0.081766
512 1 0.718689 0.197174 0.5 0.324711 0.0781004
513 1 0.563535 0.887677 0.5 0.37692 -0.806657
514 1 0.100496 0.351566 0.5 0.525608 0.276628
515 1 0.334814 0.760563 0.5 -0.289073 0.436063
516 1 0.549465 0.171779 0.5 -0.36623 0.504764
517 1 0.950297 0.145136 0.5 -0.144553 -0.152781
518 1 0.371371 0.599229 0.5 0.802739 0.165512
519 1 0.626051 0.750102 0.5 -0.493858 -0.597682
520 1 0.735151 0.353296 0.5 -0.202489 -0.178269
521 1 0.601035 0.0428071 0.5 -0.0450847 0.195227
522 1 0.805261 0.413789 0.5 0.0546164 -0.374741
523 1 0.919735 0.0953194 0.5 -0.102734 0.170845
524 1 0.253985 0.111448 0.5 0.135221 -0.893849
525 1 0.122181 0.245416 0.5 -0.343948 0.367808
526 1 0.511104 0.131692 0.5 -0.23549 0.646293
527 1 0.0713051 0.741708 0.5 0.911403 -0.0860777
528 1 0.0213407 0.558412 0.5 -0.0311433 0.307831
529 1 0.624971 0.128576 0.5 0 0
530 1 0.809994 0.929295 0.5 -0.635574 0.625997
531 1 0.542997 0.45464 0.5 -0.136476 0.92932
532 1 0.724204 0.335115 0.5 -0.394579 -0.0552031
533 1 0.916265 0.0410555 0.5 -0.244711 -0.24681
534 1 0.542519 0.0619376 0.5 -0.652743 -0.687507
535 1 0.140235 0.424637 0.5 -0.370663 -0.413693
536 1 0.00115613 0.921027 0.5 -0.25457 0.233415
537 1 0.0199003 0.799818 0.5 -0.258189 -0.270619
538 1 0.847915 0.788288 0.5 0.0528574 -0.294555
539 1 0.560045 0.635364 0.5 -0.634849 -0.167713
540 1 0.858542 0.879284 0.5 -0.420912 -0.205369
541 1 0.883499 0.543021 0.5 -0.54787 0.341989
542 1 0.384731 0.685701 0.5 0.457603 0.0420302
543 1 0.280551 0.450541 0.5 0.0279335 -0.479005
544 1 0.729922 0.969266 0.5 0.128783 0.376293
545 1 0.344061 0.462333 0.5 -0.0515255 -0.454113
546 1 0.725908 0.525235 0.5 -0.0740601 -0.582546
547 1 0.386178 0.910853 0.5 -0.671243 0.0680095
548 1 0.527217 0.546783 0.5 0.163474 0.888891
549 1 0.967257 0.878489 0.5 -0.796507 0.298976
550 1 0.997321 0.669938 0.5 0.29646 0.348193
551 1 0.610468 0.325883 0.5 0.00930885 0.245028
552 1 0.0125344 0.413676 0.5 0.0266227 0.379921
553 1 0.0251587 0.962289 0.5 -0.10389 0.686945
554 1 0.959337 0.942781 0.5 -0.368595 0.577442
555 1 0.344209 0.924117 0.5 -0.193523 -0.0988229
556 1 0.834488 0.758229 0.5 -0.59957 0.51938
557 1 0.0957848 0.00468067 0.5 -0.250093 0.364638
558 1 0.61402 0.661817 0.5 -0.446029 -0.224503
559 1 0.859714 0.0633004 0.5 0.156573 -0.0497242
560 1 0.205658 0.9834 0.5 -0.308266 -0.451415
561 1 0.926181 0.831471 0.5 0.400297 -0.565618
562 1 0.833183 0.414951 0.5 -0.487079 0.0587171
563 1 0.944239 0.889074 0.5 -0.501599 -0.340683
564 1 0.328374 0.417488 0.5 0.00360446 0.337836
565 1 0.307705 0.699287 0.5 -0.650083 -0.0265418
566 1 0.83387 0.997685 0.5 0.139529 0.886741
567 1 0.0379032 0.00495861 0.5 -0.784679 -0.311082
568 1 0.876402 0.884381 0.5 -0.281258 -0.631252
569 1 0.809654 0.0608001 0.5 0.20213 -0.126591
570 1 0.452473 0.94463 0.5 0 0
571 1 0.430324 0.377406 0.5 0.508628 0.398667
572 1 0.72019 0.577773 0.5 -0.0322058 0.512384
573 1 0.0437833 0.310435 0.5 0.187297 0.027009
574 1 0.806385 0.134091 0.5 0.192962 -0.0375714
575 1 0.829598 0.265269 0.5 -0.420914 0.0990161
576 1 0.996286 0.590423 0.5 0.539826 -0.142871
577 1 0.975658 0.149266 0.5 0.193928 0.137428
578 1 0.00483951 0.41969 0.5 -0.013528 0.354332
579 1 0.787914 0.411462 0.5 -0.627083 0.124924
580 1 0.539141 0.0150418 0.5 -0.592298 0.0118789
581 1 0.105122 0.888355 0.5 -0.120916 0.0713518
582 1 0.796303 0.904868 0.5 -0.331623 0.168771
583 1 0.872093 0.904172 0.5 0.0757548 -0.108516
584 1 0.26908 0.404197 0.5 -0.217347 0.562342
585 1 0.689805 0.78504 0.5 0.779944 0.110113
586 1 0.989475 0.531076 0.5 -0.265787 0.310675
587 1 0.0223247 0.607826 0.5 0.255904 0.23192
588 1 0.967069 0.708097 0.5 0.344622 -0.139251
589 1 0.729185 0.0164717 0.5 0.701741 0.353689
590 1 0.081049 0.95805 0.5 0.413324 0.190573
591 1 0.781564 0.0722506 0.5 0.714145 0.118369
592 1 0.658083 0.729445 0.5 0.598998 -0.120937
593 1 0.177201 0.730856 0.5 -0.544966 0.0931635
594 1 0.857585 0.0921786 0.5 0.537426 -0.0131254
595 1 0.00155759 0.909534 0.5 0.110313 -0.714832
596 1 0.703286 0.306379 0.5 -0.223146 -0.128379
597 1 0.87887 0.0688598 0.5 -0.358307 -0.429098
598 1 0.851344 0.42396 0.5 -0.202391 -0.0964284
599 1 0.400027 0.45413 0.5 -0.292856 0.172269
600 1 0.258263 0.0630794 0.5 -0.0541398 -0.851184
601 1 0.644937 0.106975 0.5 0.114995 0.809677
602 1 0.700234 0.58606 0.5 0.235152 -0.709645
603 1 0.257822 0.326675 0.5 -0.342363 0.610599
604 1 0.242711 0.737533 0.5 -0.214034 -0.436485
605 1 0.0624729 0.109497 0.5 0.69057 -0.647695
606 1 0.392523 0.175667 0.5 0.180391 0.296857
607 1 0.702579 0.0852043 0.5 0.655185 -0.0868854
608 1 0.0764294 0.243992 0.5 -0.191846 0.0210826
609 1 0.637906 0.114303 0.5 0.0438205 0.694414
610 1 0.000950485 0.482032 0.5 -0.0842428 0.647692
611 1 0.026914 0.000419628 0.5 -0.151563 0.508507
612 1 0.869691 0.0630446 0.5 -0.490854 -0.132597
613 1 0.54167 0.856345 0.5 -0.365466 -0.569689
614 1 0.774259 0.173369 0.5 0.561277 -0.0945617
615 1 0.617102 0.178805 0.5 -0.100629 0.0321816
616 1 0.193726 0.260526 0.5 0.380948 0.316366
617 1 0.0931937 0.30683 0.5 -0.53669 0.239386
618 1 0.305469 0.761802 0.5 0.516651 -0.142612
619 1 0.763227 0.382682 0.5 -0.0099894 0.264934
620 1 0.959806 0.321989 0.5 -0.496256 0.720443
621 1 0.386111 0.882846 0.5 0.307925 -0.598102
622 1 0.59199 0.705958 0.5 -0.150915 -0.111325
623 1 0.171321 0.0219077 0.5 -0.327899 0.250495
624 1 0.54308 0.75747 0.5 0.533176 -0.197497
625 1 0.700472 0.265971 0.5 0.212744 -0.140883
626 1 0.311836 0.423661 0.5 0.719143 0.534008
627 1 0.117287 0.0786792 0.5 0.134088 -0.747082
628 1 0.662397 0.968667 0.5 -0.575223 0.166612
629 1 0.234137 0.448949 0.5 -0.27416 -0.392381
630 1 0.987292 0.183679 0.5 -0.962574 -0.00537376
631 1 0.25371 0.152629 0.5 0.217514 -0.427858
632 1 0.333794 0.148654 0.5 -0.0336041 -0.579699
633 1 0.163851 0.847912 0.5 0.318328 -0.561329
634 1 0.6742 0.902949 0.5 -0.374888 0.726438
635 1 0.14139 0.602834 0.5 0.101671 -0.272755