ITEM: TIMESTEP
0
ITEM: NUMBER OF ATOMS
9304
ITEM: BOX BOUNDS pp pp pp
-5.8359999999999999e+01 5.8359999999999999e+01
-5.8359999999999999e+01 5.8359999999999999e+01
-5.0000000000000000e-01 5.0000000000000000e-01
ITEM: ATOMS id type xs ys zs c_002[1] c_002[2]
1 1 0.312791 0.257671 0.5 0.24262 0.324859
2 1 0.364125 0.685994 0.5 0.649365 0.318753
3 1 0.144447 0.185683 0.5 0.956158 -0.211807
4 1 0.143672 0.804176 0.5 -0.444318 -0.570365
5 1 0.822997 0.659752 0.5 -0.153962 -0.55768
6 1 0.903279 0.575358 0.5 -0.0676782 0.59025
7 1 0.611192 0.180595 0.5 0.178207 0.241847
8 1 0.487646 0.978193 0.5 0.415667 -0.678353
9 1 0.918938 0.750118 0.5 -0.0986013 0.244247
10 1 0.924543 0.514185 0.5 0 0
11 1 0.00921795 0.538249 0.5 -0.870005 0.0489772
12 1 0.21213 0.624091 0.5 0.0813486 -0.507292
13 1 0.254555 0.300102 0.5 -0.239533 0.260296
14 1 0.0798876 0.385493 0.5 -0.20551 0.507556
15 1 0.915117 0.380734 0.5 0.426315 -0.374858
16 1 0.0888875 0.439832 0.5 0.097683 0.21873
17 1 0.405366 0.33101 0.5 -0.3422 -0.838632
18 1 0.939076 0.434085 0.5 0.404238 -0.106112
19 1 0.0991734 0.675563 0.5 -0.220983 -0.390377
20 1 0.988354 0.482589 0.5 -0.742541 0.420946
21 1 0.134979 0.416876 0.5 0.610047 0.234344
22 1 0.12412 0.365992 0.5 0.12101 0.869244
23 1 0.346576 0.336253 0.5 -0.405508 0.272799
24 1 0.849416 0.940373 0.5 -0.110488 -0.462717
25 1 0.254411 0.127599 0.5 -0.159651 -0.366684
26 1 0.261253 0.501515 0.5 0.338635 0.426893
27 1 0.0617757 0.585211 0.5 0.0529503 -0.267039
28 1 0.863408 0.770057 0.5 -0.373444 0.115373
29 1 0.440003 0.449459 0.5 0.63158 -0.176451
30 1 0.821397 0.326716 0.5 0.291098 -0.297386
31 1 0.114556 0.197958 0.5 0.218435 0.677089
32 1 0.182229 0.313341 0.5 -0.45989 -0.0588988
33 1 0.172408 0.743224 0.5 0.28099 0.275632
34 1 0.240538 0.453285 0.5 0.61955 0.522474
35 1 0.215093 0.502588 0.5 -0.0767931 -0.614342
36 1 0.0729382 0.453446 0.5 -0.16536 0.371442
37 1 0.198293 0.47529 0.5 0.685577 -0.633468
38 1 0.472713 0.347741 0.5 -0.426036 -0.737684
39 1 0.141801 0.70063 0.5 0.29323 0.738857
40 1 0.830685 0.0475049 0.5 0.0402719 -0.803999
41 1 0.994678 0.412669 0.5 0.548816 -0.188099
42 1 0.353959 0.254682 0.5 -0.14585 -0.251308
43 1 0.0730954 0.80507 0.5 0.53341 -0.503753
44 1 0.0564369 0.691522 0.5 0.0285807 0.590397
45 1 0.0279727 0.785466 0.5 -0.671357 -0.637021
46 1 0.350276 0.473204 0.5 -0.271372 -0.0886794
47 1 0.50695 0.313194 0.5 -0.577021 -0.178679
48 1 0.859573 0.798596 0.5 0.683058 0.425493
49 1 0.0247233 0.675065 0.5 -0.321164 0.227751
50 1 0.962436 0.556299 0.5 -0.559095 0.327916
51 1 0.841785 0.381681 0.5 -0.234156 0.687165
52 1 0.136475 0.996131 0.5 0.52345 -0.0355842
53 1 0.407501 0.175814 0.5 -0.065573 -0.423972
54 1 0.983395 0.383807 0.5 0.530424 -0.682481
55 1 0.356197 0.360508 0.5 -0.724432 0.0724013
56 1 0.841426 0.492652 0.5 -0.0253076 -0.638457
57 1 0.308732 0.461839 0.5 -0.441519 0.692839
58 1 0.931467 0.458057 0.5 0.0515637 -0.474565
59 1 0.126016 0.977452 0.5 0.453742 -0.338709
60 1 0.983201 0.181485 0.5 0.342034 -0.277631
61 1 0.0982658 0.50868 0.5 0.0700848 0.31621
62 1 0.0104283 0.748615 0.5 -0.0845479 0.238942
63 1 0.151747 0.541847 0.5 0.739718 0.0693545
64 1 0.0866156 0.598926 0.5 -0.584025 -0.43967
65 1 0.156689 0.640548 0.5 0.836297 -0.129627
66 1 0.992687 0.381188 0.5 0.477172 -0.537915
67 1 0.696351 0.617202 0.5 -0.21827 -0.653463
68 1 0.0298183 0.742889 0.5 0.517739 -0.312064
69 1 0.206121 0.495846 0.5 -0.548727 -0.17035
70 1 0.201364 0.359208 0.5 0.313964 -0.173634
71 1 0.085515 0.824938 0.5 0.23491 0.0421696
72 1 0.931484 0.415379 0.5 -0.639781 -0.397848
73 1 0.864664 0.703611 0.5 0.0822845 0.415226
74 1 0.0989744 0.888018 0.5 -0.392601 -0.651637
75 1 0.836629 0.0688642 0.5 -0.500895 -0.672873
76 1 0.1413 0.391657 0.5 -0.637305 0.00399877
77 1 0.223965 0.878941 0.5 -0.388741 -0.219251
78 1 0.412814 0.153431 0.5 0.019201 -0.860132
79 1 0.165967 0.507175 0.5 0.585457 -0.412021
80 1 0.214967 0.818377 0.5 -0.861906 0.12109
81 1 0.888866 0.809418 0.5 0.408807 -0.00534604
82 1 0.068466 0.482548 0.5 0.477088 0.704258
83 1 0.970383 0.593844 0.5 0.102529 -0.285071
84 1 0.411983 0.37684 0.5 -0.285723 0.400622
85 1 0.112394 0.492248 0.5 -0.24307 0.380066
86 1 0.966641 0.332333 0.5 0.378738 -0.337342
87 1 0.996471 0.247533 0.5 -0.148799 -0.380459
88 1 0.469421 0.319838 0.5 0.367981 -0.0715017
89 1 0.257138 0.701898 0.5 -0.0245758 0.0407304
90 1 0.99428 0.736405 0.5 0.862476 0.0399442
91 1 0.808827 0.17776 0.5 0.00947745 -0.873302
92 1 0.987878 0.332604 0.5 -0.479545 -0.152998
93 1 0.15283 0.37457 0.5 -0.254265 0.111523
94 1 0.962697 0.650108 0.5 0.127917 -0.206682
95 1 0.902343 0.755677 0.5 0.00583056 0.253695
96 1 0.999841 0.543075 0.5 -0.785977 0.043861
97 1 0.973806 0.107073 0.5 0.144513 0.327888
98 1 0.372222 0.288635 0.5 -0.763976 -0.117447
99 1 0.522456 0.904972 0.5 0.360606 0.834565
100 1 0.296144 0.605257 0.5 -0.338714 -0.816583
101 1 0.682185 0.472923 0.5 -0.446813 -0.509852
102 1 0.444283 0.483212 0.5 -0.435872 -0.490928
103 1 0.250599 0.62401 0.5 0.202915 -0.0412274
104 1 0.661501 0.737049 0.5 0.633676 0.597984
105 1 0.250903 0.657827 0.5 0.407869 0.141286
106 1 0.171737 0.699504 0.5 -0.0483029 0.768717
107 1 0.630106 0.782517 0.5 0.0200143 0.58619
108 1 0.747154 0.930557 0.5 0.625044 0.142136
109 1 0.589782 0.207469 0.5 0.144485 0.237253
110 1 0.0325683 0.443134 0.5 0.33689 -0.407744
111 1 0.375568 0.328142 0.5 -0.782033 0.147399
112 1 0.114558 0.443496 0.5 0.509093 -0.79271
113 1 0.638704 0.981304 0.5 -0.644658 0.151529
114 1 0.974533 0.743919 0.5 -0.30177 0.015663
115 1 0.202448 0.214473 0.5 -0.394962 -0.20639
116 1 0.722274 0.626258 0.5 0.613866 -0.527365
117 1 0.933907 0.50776 0.5 -0.405043 0.121208
118 1 0.176292 0.340634 0.5 -0.673872 -0.315823
119 1 0.777978 0.768515 0.5 -0.105867 0.67262
120 1 0.458731 0.500932 0.5 0 0
121 1 0.244713 0.55464 0.5 0.372824 0.145129
122 1 0.0102654 0.571956 0.5 0.67152 0.0841538
123 1 0.882385 0.608443 0.5 -0.350845 0.182835
124 1 0.204317 0.456206 0.5 0.300027 -0.628686
125 1 0.0923856 0.411368 0.5 -0.621008 0.144535
126 1 0.395006 0.34639 0.5 -0.335798 0.502304
127 1 0.10079 0.477865 0.5 -0.726011 -0.288549
128 1 0.93993 0.233423 0.5 0.64019 0.0726227
129 1 0.154218 0.524362 0.5 0.182769 0.484013
130 1 0.0982413 0.987505 0.5 0.527238 0.524109
131 1 0.193934 0.371715 0.5 0.304016 -0.316177
132 1 0.879888 0.373048 0.5 -0.721207 0.0359416
133 1 0.183485 0.945773 0.5 0.48586 -0.301547
134 1 0.905351 0.656004 0.5 0.15072 -0.662376
135 1 0.68414 0.409304 0.5 0.0578909 -0.879851
136 1 0.0802267 0.6287 0.5 -0.173743 0.44757
137 1 0.00292173 0.227497 0.5 0.423049 -0.74088
138 1 0.0111497 0.37268 0.5 0.0364084 0.681599
139 1 0.0210755 0.532365 0.5 -0.694001 -0.11646
140 1 0.469335 0.0181826 0.5 0.23262 0.0794638
141 1 0.524232 0.594619 0.5 -0.454202 0.290529
142 1 0.340852 0.519133 0.5 -0.443122 -0.216235
143 1 0.858531 0.419846 0.5 0.352286 0.739344
144 1 0.128905 0.676743 0.5 -0.248515 -0.0769758
145 1 0.0403173 0.679169 0.5 0.479937 -0.529787
146 1 0.961883 0.672071 0.5 0.241801 0.322622
147 1 0.945783 0.569921 0.5 -0.302785 -0.211328
148 1 0.440713 0.607944 0.5 -0.652909 0.320883
149 1 0.906772 0.200118 0.5 0.434111 0.757147
150 1 0.00669693 0.411936 0.5 0.097824 0.538267
151 1 0.0451877 0.418394 0.5 -0.490916 -0.730152
152 1 0.960962 0.635899 0.5 0.093962 -0.233184
153 1 0.150025 0.288235 0.5 0.589839 0.739386
154 1 0.0591108 0.860246 0.5 0.628009 -0.614888
155 1 0.317849 0.517229 0.5 -0.525786 0.120663
156 1 0.385095 0.460741 0.5 -0.672025 -0.0731389
157 1 0.0753397 0.192513 0.5 -0.349754 0.256646
158 1 0.807788 0.198696 0.5 0.263055 0.0188413
159 1 0.698153 0.596961 0.5 0 0
160 1 0.0713797 0.390243 0.5 -0.324305 0.427859
161 1 0.937288 0.563773 0.5 -0.264204 -0.499218
162 1 0.884788 0.890291 0.5 -0.338321 0.19992
163 1 0.838262 0.942507 0.5 -0.110003 -0.621495
164 1 0.0926886 0.909587 0.5 -0.568589 -0.318728
165 1 0.294887 0.245488 0.5 -0.473147 -0.485687
166 1 0.183239 0.58651 0.5 0.7962 0.106377
167 1 0.096758 0.318852 0.5 -0.181986 -0.230563
168 1 0.906562 0.424537 0.5 0.062508 0.779895
169 1 0.340086 0.551489 0.5 0.324305 0.608136
170 1 0.799629 0.430255 0.5 -0.950862 -0.0169263
171 1 0.334178 0.559135 0.5 0.0206145 0.373491
172 1 0.319976 0.600972 0.5 -0.375678 0.648311
173 1 0.204804 0.675897 0.5 -0.330606 0.208881
174 1 0.0579009 0.480209 0.5 0.181105 0.604008
175 1 0.753069 0.823477 0.5 0.766808 -0.107243
176 1 0.0853803 0.547186 0.5 -0.25167 0.087958
177 1 0.970898 0.638 0.5 0.765609 0.460813
178 1 0.979848 0.523986 0.5 -0.422062 0.316744
179 1 0.468837 0.211501 0.5 -0.451427 0.176651
180 1 0.505579 0.177111 0.5 0.203044 0.0641865
181 1 0.38254 0.447051 0.5 -0.25412 0.257592
182 1 0.982143 0.353723 0.5 -0.00967003 -0.261505
183 1 0.878791 0.338776 0.5 0.3155 -0.0557806
184 1 0.105019 0.605627 0.5 0.139328 0.460801
185 1 0.852594 0.262634 0.5 0.0945635 0.366448
186 1 0.948315 0.912027 0.5 -0.545222 0.564903
187 1 0.538688 0.724359 0.5 -0.130324 0.390592
188 1 0.240191 0.00760064 0.5 0.126303 -0.140215
189 1 0.951224 0.872683 0.5 0.234158 -0.684231
190 1 0.680247 0.603018 0.5 0.505088 0.211296
191 1 0.100261 0.916028 0.5 -0.679356 -0.225132
192 1 0.0868972 0.304322 0.5 -0.918083 -0.119474
193 1 0.254677 0.289987 0.5 0.207727 -0.481801
194 1 0.115452 0.799744 0.5 0.606119 -0.0918466
195 1 0.856514 0.709127 0.5 -0.519903 0.283833
196 1 0.342758 0.68071 0.5 -0.439093 0.58223
197 1 0.030857 0.289957 0.5 -0.193659 -0.755815
198 1 0.393883 0.53571 0.5 -0.603311 0.480189
199 1 0.39179 0.426228 0.5 0.201793 -0.574697
200 1 0.413473 0.461529 0.5 0.819432 0.0719717
201 1 0.97706 0.282287 0.5 0.154886 0.712585
202 1 0.893889 0.926765 0.5 0.324349 -0.293549
203 1 0.572232 0.119786 0.5 0.0669742 -0.605293
204 1 0.235628 0.377583 0.5 -0.210175 0.243171
205 1 0.0726464 0.219361 0.5 0.403332 0.812633
206 1 0.383267 0.690931 0.5 0.501792 0.180832
207 1 0.131509 0.478709 0.5 -0.309919 -0.0341715
208 1 0.955303 0.828594 0.5 0.143249 0.523331
209 1 0.938827 0.844957 0.5 -0.388706 -0.0485774
210 1 0.430353 0.362469 0.5 -0.480201 0.246831
211 1 0.413861 0.303203 0.5 -0.206969 0.416012
212 1 0.759121 0.0224556 0.5 0.025804 -0.435109
213 1 0.372758 0.399151 0.5 -0.214022 -0.501454
214 1 0.197395 0.983465 0.5 0.258044 -0.0733515
215 1 0.351068 0.614783 0.5 -0.390795 0.548382
216 1 0.766655 0.355837 0.5 0.246069 -0.161535
217 1 0.885064 0.0787011 0.5 -0.706559 0.158614
218 1 0.337376 0.364799 0.5 0.648375 -0.00100612
219 1 0.728703 0.482186 0.5 -0.522522 -0.509794
220 1 0.706427 0.716146 0.5 0.780338 0.355596
221 1 0.43514 0.395051 0.5 0.532267 0.457192
222 1 0.0645533 0.197889 0.5 0.201689 -0.236713
223 1 0.0802191 0.2503 0.5 0.784283 0.339337
224 1 0.674119 0.61233 0.5 0.20691 0.567363
225 1 0.117106 0.155365 0.5 0.666036 0.153958
226 1 0.387618 0.238724 0.5 -0.0101275 0.782355
227 1 0.200178 0.537535 0.5 -0.148336 -0.0888574
228 1 0.136789 0.351771 0.5 -0.0653158 0.245107
229 1 0.142043 0.380023 0.5 -0.483493 -0.152137
230 1 0.766933 0.23217 0.5 0.0563727 -0.45476
231 1 0.234217 0.481134 0.5 0.122612 0.0705074
232 1 0.95977 0.216069 0.5 0.0757254 0.276931
233 1 0.027351 0.796541 0.5 -0.75707 -0.0715141
234 1 0.834449 0.646275 0.5 -0.351916 -0.726527
235 1 0.360852 0.466564 0.5 -0.306315 0.659128
236 1 0.971191 0.495925 0.5 -0.850472 0.151655
237 1 0.367154 0.216469 0.5 0.0189856 0.027644
238 1 0.951891 0.61842 0.5 -0.133799 0.0460412
239 1 0.916551 0.238568 0.5 -0.474507 -0.806801
240 1 0.495007 0.372024 0.5 0.665131 0.387849
241 1 0.887633 0.628773 0.5 -0.0292464 0.237913
242 1 0.755041 0.94043 0.5 0.584449 -0.521764
243 1 0.078742 0.485394 0.5 0.538114 0.650262
244 1 0.749436 0.630706 0.5 -0.36665 -0.416468
245 1 0.817542 0.430194 0.5 -0.36233 0.0618187
246 1 0.0461069 0.640118 0.5 -0.0753674 0.422677
247 1 0.0453864 0.306904 0.5 0.163904 0.556008
248 1 0.166201 0.83903 0.5 -0.316981 0.0863839
249 1 0.95398 0.11129 0.5 -0.0346343 -0.39559
250 1 0.853858 0.699617 0.5 -0.223422 0.00344275
251 1 0.658597 0.0149163 0.5 -0.445313 0.240842
252 1 0.358595 0.442427 0.5 -0.339585 0.307528
253 1 0.120289 0.542988 0.5 -0.0422577 0.596675
254 1 0.839618 0.907603 0.5 -0.302419 0.662654
255 1 0.980686 0.235595 0.5 -0.253298 0.736755
256 1 0.328163 0.453357 0.5 0.129772 0.702049
257 1 0.923957 0.682915 0.5 0.311969 -0.772242
258 1 0.233857 0.256353 0.5 0.519264 0.638116
259 1 0.48919 0.0470936 0.5 0.744274 -0.273683
260 1 0.790316 0.66433 0.5 -0.780777 0.313098
261 1 0.970242 0.441175 0.5 0.584092 -0.0297041
262 1 0.890352 0.474478 0.5 -0.019195 0.636059
263 1 0.959731 0.350891 0.5 -0.0953767 0.276204
264 1 0.150018 0.587604 0.5 -0.190569 0.462101
265 1 0.423902 0.323687 0.5 -0.236705 0.166981
266 1 0.143642 0.471822 0.5 0.0225126 0.437469
267 1 0.844668 0.683618 0.5 -0.0334261 -0.468313
268 1 0.0637392 0.98171 0.5 -0.63396 0.646662
269 1 0.840091 0.803162 0.5 0.0231316 0.534287
270 1 0.764181 0.69151 0.5 0.383342 0.790371
271 1 0.16228 0.233346 0.5 -0.146002 0.246397
272 1 0.663855 0.34618 0.5 0.398976 -0.663673
273 1 0.899436 0.206523 0.5 -0.0704146 0.832719
274 1 0.243047 0.41676 0.5 -0.49905 -0.751969
275 1 0.827271 0.733258 0.5 -0.42019 -0.321907
276 1 0.0982744 0.820916 0.5 -0.403929 0.0772759
277 1 0.278621 0.662884 0.5 -0.281475 0.14858
278 1 0.912274 0.760222 0.5 0.111958 -0.0511679
279 1 0.191733 0.560406 0.5 0.130352 0.390005
280 1 0.788011 0.815504 0.5 0.420285 -0.467079
281 1 0.167246 0.579997 0.5 0 0
282 1 0.0777532 0.539762 0.5 -0.2972 0.127037
283 1 0.522664 0.409518 0.5 0.0783849 0.530535
284 1 0.321154 0.355922 0.5 0.429586 -0.265214
285 1 0.15099 0.429052 0.5 0.427743 -0.0590775
286 1 0.165004 0.334273 0.5 -0.687573 -0.184557
287 1 0.945646 0.772768 0.5 -0.160159 0.00804732
288 1 0.154342 0.912847 0.5 0.243548 -0.0302629
289 1 0.826673 0.500519 0.5 0.468252 0.404325
290 1 0.855963 0.739873 0.5 0.242926 -0.180388
291 1 0.79827 0.6576 0.5 -0.184264 0.750049
292 1 0.0177319 0.845978 0.5 0.782539 -0.362004
293 1 0.889339 0.820764 0.5 0.0293061 0.333432
294 1 0.032155 0.0178319 0.5 -0.133872 -0.415667
295 1 0.702949 0.405525 0.5 0.377173 -0.688716
296 1 0.0933006 0.772478 0.5 0.183062 0.0666079
297 1 0.96542 0.828608 0.5 0.945168 0.147839
298 1 0.743584 0.74702 0.5 0.348636 0.252029
299 1 0.740875 0.585058 0.5 -0.139311 0.774214
300 1 0.803638 0.731569 0.5 0.325507 0.644565
301 1 0.975902 0.809347 0.5 0.117892 -0.346677
302 1 0.675263 0.810867 0.5 -0.189777 -0.563503
303 1 0.331574 0.722815 0.5 0.488978 -0.386493
304 1 0.261988 0.0631614 0.5 0.529658 0.390304
305 1 0.8467 0.711529 0.5 -0.078309 -0.356756
306 1 0.841648 0.0889711 0.5 0.136697 -0.788952
307 1 0.0453241 0.931251 0.5 -0.0575318 -0.0165729
308 1 0.185335 0.649313 0.5 0.0671514 -0.00481389
309 1 0.111824 0.453107 0.5 0.144098 -0.530545
310 1 0.450507 0.277316 0.5 0.362991 -0.0285921
311 1 0.86916 0.638157 0.5 -0.348147 0.694578
312 1 0.00745867 0.679582 0.5 -0.295052 0.873114
313 1 0.640299 0.651587 0.5 -0.749516 0.354234
314 1 0.579827 0.53225 0.5 0.561492 -0.594832
315 1 0.593276 0.372253 0.5 0 0
316 1 0.862591 0.862602 0.5 0.290275 -0.258481
317 1 0.136898 0.0308289 0.5 0.676113 0.643787
318 1 0.971249 0.463202 0.5 -0.486312 -0.254107
319 1 0.665505 0.243198 0.5 0.324589 0.11726
320 1 0.744885 0.0225991 0.5 0.743521 -0.164463
321 1 0.656292 0.617705 0.5 0.237104 0.328774
322 1 0.721015 0.882695 0.5 -0.636039 -0.0499578
323 1 0.581575 0.777818 0.5 -0.39413 0.167122
324 1 0.646171 0.61719 0.5 0.366016 -0.295276
325 1 0.650337 0.152001 0.5 0.343169 0.335974
326 1 0.388224 0.374158 0.5 0.0406645 -0.0277018
327 1 0.516956 0.672491 0.5 -0.153059 -0.629558
328 1 0.683681 0.907696 0.5 0.227992 -0.286251
329 1 0.77076 0.0487821 0.5 -0.610652 0.514504
330 1 0.802854 0.914547 0.5 0.219166 0.859268
331 1 0.0891686 0.504881 0.5 0.0917031 -0.100396
332 1 0.761293 0.66569 0.5 -0.220622 -0.547785
333 1 0.937595 0.778061 0.5 0.313433 -0.103218
334 1 0.0748062 0.72781 0.5 -0.562849 0.714027
335 1 0.402204 0.757637 0.5 0.492761 -0.00699806
336 1 0.837207 0.56434 0.5 -0.147711 0.0266502
337 1 0.00392199 0.992438 0.5 0.374592 -0.183111
338 1 0.63799 0.307377 0.5 0.141931 -0.0399016
339 1 0.713606 0.898672 0.5 0.431836 0.0543067
340 1 0.531432 0.827423 0.5 -0.539281 -0.527754
341 1 0.644942 0.490844 0.5 -0.207267 -0.310175
342 1 0.935382 0.527846 0.5 0 0
343 1 0.133697 0.614387 0.5 -0.462432 -0.567892
344 1 0.0130947 0.972212 0.5 0.62698 0.00330333
345 1 0.810696 0.90553 0.5 -0.373734 0.372388
346 1 0.942872 0.329465 0.5 0.317045 0.464802
347 1 0.903356 0.0795818 0.5 -0.284705 -0.401366
348 1 0.154157 0.987779 0.5 0.419929 -0.31722
349 1 0.0478936 0.448082 0.5 -0.297794 -0.324441
350 1 0.660322 0.963198 0.5 0.147166 -0.162684
351 1 0.303179 0.254922 0.5 -0.0792331 -0.198349
352 1 0.942914 0.95212 0.5 -0.18209 -0.357569
353 1 0.274374 0.00584423 0.5 0.39477 0.288429
354 1 0.890825 0.00124241 0.5 0.659785 -0.0260754
355 1 0.794072 0.368809 0.5 0.479029 0.285499
356 1 0.780223 0.669093 0.5 -0.681911 -0.0702926
357 1 0.251432 0.470014 0.5 0.587635 0.293686
358 1 0.955318 0.963412 0.5 0.503428 0.511864
359 1 0.782262 0.174839 0.5 -0.0564755 -0.634145
360 1 0.0810523 0.756194 0.5 0.494793 -0.18121
361 1 0.632576 0.560449 0.5 -0.144507 0.633618
362 1 0.968034 0.703085 0.5 -0.103634 0.0518378
363 1 0.0545075 0.648172 0.5 0.297728 0.348157
364 1 0.193576 0.0491579 0.5 -0.414057 0.391165
365 1 0.731257 0.968646 0.5 -0.416369 -0.141946
366 1 0.963597 0.985436 0.5 -0.248304 0.700995
367 1 0.912018 0.664506 0.5 0.208323 -0.646589
368 1 0.832049 0.244766 0.5 0.444117 0.714952
369 1 0.429331 0.832221 0.5 0.196623 -0.567144
370 1 0.0639115 0.449584 0.5 -0.436647 -0.189712
371 1 0.39128 0.63355 0.5 -0.00699356 -0.288308
372 1 0.579857 0.719994 0.5 0.717333 -0.242383
373 1 0.89221 0.310217 0.5 -0.610869 0.772639
374 1 0.601023 0.447417 0.5 0.484945 0.668773
375 1 0.377965 0.906881 0.5 0.00136197 -0.261562
376 1 0.10934 0.764001 0.5 0.261139 0.519034
377 1 0.0576459 0.595 0.5 0.247633 -0.597027
378 1 0.181085 0.89 0.5 -0.475393 0.609769
379 1 0.879675 0.0337901 0.5 0.351582 0.431089
380 1 0.347948 0.134524 0.5 -0.191006 -0.658938
381 1 0.376539 0.872849 0.5 0.0953066 -0.0981142
382 1 0.853383 0.881075 0.5 0.497432 0.266788
383 1 0.965381 0.0673867 0.5 -0.165168 0.338559
384 1 0.156067 0.971112 0.5 0.397943 0.126431
385 1 0.933246 0.619623 0.5 -0.572676 -0.249682
386 1 0.120119 0.746304 0.5 0.596681 0.119825
387 1 0.619594 0.162722 0.5 0.299722 0.804021
388 1 0.0950212 0.0633251 0.5 -0.662709 -0.608536
389 1 0.876235 0.05879 0.5 -0.476942 0.200301
390 1 0.198806 0.0806674 0.5 0.44939 -0.307756
391 1 0.0531849 0.466563 0.5 -0.167865 -0.0513554
392 1 0.384499 0.531899 0.5 0.0222217 0.679164
393 1 0.210076 0.912034 0.5 -0.272359 -0.221784
394 1 0.673897 0.564335 0.5 -0.298527 0.0451601
395 1 0.789608 0.0684966 0.5 -0.841913 0.126252
396 1 0.970224 0.760429 0.5 0.755978 0.0204241
397 1 0.173594 0.944266 0.5 0.810351 -0.135601
398 1 0.536879 0.806679 0.5 0.207075 -0.855252
399 1 0.165649 0.74988 0.5 0.313497 0.760876
400 1 0.592932 0.322254 0.5 0.32731 -0.653735
401 1 0.957569 0.574013 0.5 0.237668 0.811917
402 1 0.0586463 0.516545 0.5 -0.428779 0.621385
403 1 0.844217 0.693004 0.5 -0.694138 -0.592351
404 1 0.663365 0.718208 0.5 0.245684 0.550115
405 1 0.182985 0.861174 0.5 -0.316992 0.0764351
406 1 0.825162 0.15498 0.5 0.38917 -0.422446
407 1 0.641313 0.295185 0.5 -0.118096 -0.645368
408 1 0.0686802 0.633391 0.5 -0.132494 -0.108403
409 1 0.00364156 0.81411 0.5 -0.00688683 0.504005
410 1 0.0597536 0.552215 0.5 -0.855876 0.379946
411 1 0.884662 0.91284 0.5 -0.340232 0.295268
412 1 0.0737881 0.474167 0.5 0.159474 0.717475
413 1 0.779391 0.534415 0.5 -0.349815 -0.512076
414 1 0.000757704 0.497986 0.5 -0.410721 0.68435
415 1 0.414769 0.505585 0.5 0.248835 -0.0420685
416 1 0.82825 0.893253 0.5 -0.618577 0.609926
417 1 0.206246 0.652497 0.5 0.119231 -0.317274
418 1 0.222808 0.594796 0.5 0.849604 -0.221465
419 1 0.728605 0.614519 0.5 0.700303 -0.0694784
420 1 0.184115 0.851665 0.5 -0.570819 -0.435379
421 1 0.13789 0.688216 0.5 -0.0230393 0.302269
422 1 0.407307 0.766788 0.5 0.408455 0.194919
423 1 0.926058 0.578985 0.5 0.403322 0.327853
424 1 0.297699 0.711386 0.5 0.211801 0.40045
425 1 0.13007 0.833951 0.5 0.403681 -0.0357208
426 1 0.216243 0.748296 0.5 -0.111699 -0.106565
427 1 0.937845 0.874607 0.5 0.6255 -0.188053
428 1 0.0373837 0.769354 0.5 -0.678248 -0.555683
429 1 0.982731 0.816438 0.5 -0.293425 -0.332315
430 1 0.35548 0.112346 0.5 0.706474 0.237626
431 1 0.696144 0.0359596 0.5 -0.900382 -0.0305877
432 1 0.166474 0.925143 0.5 -0.517045 0.242438
433 1 0.0703577 0.756415 0.5 0.787911 0.166389
434 1 0.740817 0.770858 0.5 -0.936918 -0.238164
435 1 0.0374844 0.990386 0.5 0.602921 0.0104462
436 1 0.102437 0.467243 0.5 -0.747854 -0.254528
437 1 0.384182 0.712414 0.5 0.260888 0.0256764
438 1 0.405737 0.83676 0.5 0.585673 -0.581584
439 1 0.0953917 0.117199 0.5 0.465245 0.0946366
440 1 0.811882 0.801045 0.5 -0.235106 0.305649
441 1 0.265804 0.608526 0.5 -0.440885 -0.145562
442 1 0.690969 0.756562 0.5 0.296398 0.352223
443 1 0.976471 0.721879 0.5 -0.168849 -0.036643
444 1 0.243576 0.681076 0.5 0.318976 0.0992645
445 1 0.0372598 0.959067 0.5 0.551483 -0.574925
446 1 0.194035 0.670696 0.5 -0.186252 0.435564
447 1 0.274046 0.487039 0.5 -0.0924119 0.522325
448 1 0.638174 0.456673 0.5 0.216416 -0.0125942
449 1 0.126532 0.843304 0.5 0.0311067 -0.050661
450 1 0.890398 0.730463 0.5 -0.610459 0.105449
451 1 0.185071 0.059231 0.5 0.0385811 0.33819
452 1 0.233755 0.709686 0.5 0.748631 0.011083
453 1 0.0353394 0.0363012 0.5 0.118809 0.338181
454 1 0.230392 0.568178 0.5 0.336527 0.108116
455 1 0.350385 0.195549 0.5 -0.816207 -0.0547827
456 1 0.943168 0.786279 0.5 0.249647 -0.705342
457 1 0.852183 0.34617 0.5 -0.570098 -0.47737
458 1 0.993121 0.977981 0.5 0.0509621 0.0287094
459 1 0.751607 0.88078 0.5 0.353375 0.220594
460 1 0.768318 0.743605 0.5 -0.259702 0.048791
461 1 0.0189682 0.542964 0.5 -0.36471 0.0747481
462 1 0.8971 0.0273558 0.5 0.66682 0.61513
463 1 0.624598 0.423844 0.5 -0.0173805 -0.809108
464 1 0.942368 0.813943 0.5 0.734506 0.193432
465 1 0.0425002 0.833098 0.5 0.830131 0.195424
466 1 0.967814 0.849498 0.5 0.505049 -0.360224
467 1 0.380741 0.433337 0.5 -0.49162 0.0968413
468 1 0.924735 0.803621 0.5 0.279602 0.139059
469 1 0.229159 0.546832 0.5 0.926686 0.143935
470 1 0.0193905 0.619484 0.5 -0.0934789 -0.66735
471 1 0.942229 0.641541 0.5 0.0466012 -0.13366
472 1 0.681374 0.755005 0.5 0.447272 0.272689
473 1 0.998444 0.686267 0.5 -0.571224 0.574823
474 1 0.225662 0.747382 0.5 0.250029 -0.288142
475 1 0.202582 0.201368 0.5 -0.0323434 0.575007
476 1 0.717723 0.5808 0.5 0.781464 -0.0828259
477 1 0.99609 0.788677 0.5 0.28635 -0.181941
478 1 0.257174 0.0221174 0.5 0.219036 -0.0474963
479 1 0.19812 0.829526 0.5 -0.747359 -0.00583119
480 1 0.837859 0.199576 0.5 0.0753827 0.905661
481 1 0.86838 0.511569 0.5 -0.737721 0.170935
482 1 0.29197 0.719987 0.5 0.543562 0.298988
483 1 0.935173 0.0281156 0.5 0.556758 -0.177152
484 1 0.291796 0.697744 0.5 0.280286 -0.138319
485 1 0.390055 0.721439 0.5 0.0524485 -0.230256
486 1 0.0631663 0.878643 0.5 -0.187504 -0.953216
487 1 0.0757625 0.866053 0.5 -0.320362 -0.759359
488 1 0.861067 0.116029 0.5 0.574826 0.476119
489 1 0.820562 0.793587 0.5 -0.579762 0.243067
490 1 0.248956 0.968176 0.5 0.243478 -0.739517
491 1 0.0845882 0.732803 0.5 -0.948576 0.18401
492 1 0.304527 0.991473 0.5 -0.703223 -0.0757367
493 1 0.203567 0.238097 0.5 -0.694215 -0.228308
494 1 0.521205 0.800471 0.5 0.342244 -0.438363
495 1 0.674743 0.649811 0.5 -0.385155 -0.302894
496 1 0.49994 0.61093 0.5 0.373716 -0.665562
497 1 0.979954 0.499941 0.5 -0.774825 0.446121
498 1 0.751336 0.668245 0.5 0.193729 -0.466676
499 1 0.804523 0.570758 0.5 0.857808 0.43016
500 1 0.146849 0.904343 0.5 0.187541 -0.164949
501 1 0.739007 0.949311 0.5 0.501919 -0.0298408
502 1 0.598073 0.878345 0.5 -0.391165 -0.450529
503 1 0.187902 0.475673 0.5 0.688557 -0.528193
504 1 0.202045 0.76448 0.5 -0.158928 -0.403965
505 1 0.347999 0.922489 0.5 -0.889407 0.118106
506 1 0.931478 0.641084 0.5 0.268781 0.15441
507 1 0.961714 0.546433 0.5 -0.755761 -0.0948867
508 1 0.710073 0.369464 0.5 0.380643 -0.227659
509 1 0.691513 0.83374 0.5 0 0
510 1 0.972044 0.730699 0.5 -0.0140652 0.0711124
511 1 0.147492 0.720807 0.5 -0.0551805 0.491931
512 1 0.863601 0.910407 0.5 0.68127 -0.332199
513 1 0.293865 0.171387 0.5 -0.553505 -0.512801
514 1 0.0488413 0.51236 0.5 0.10614 0.242012
515 1 0.174816 0.607445 0.5 0.5989 -0.554965
516 1 0.316044 0.0123354 0.5 -0.0122253 -0.296435
517 1 0.032822 0.0864466 0.5 -0.400978 -0.0780473
518 1 0.365691 0.568913 0.5 0.0156729 0.771207
519 1 0.30729 0.62919 0.5 0.439496 -0.0835805
520 1 0.951184 0.92462 0.5 -0.315546 0.732738
521 1 0.522482 0.74699 0.5 -0.36902 -0.027939
522 1 0.780007 0.432571 0.5 -0.437542 0.463873
523 1 0.787557 0.742853 0.5 -0.529293 -0.345245
524 1 0.171713 0.711067 0.5 0.0497941 0.594253
525 1 0.0689333 0.0791106 0.5 0.247983 -0.0961822
526 1 0.429482 0.896134 0.5 -0.201204 -0.125363
527 1 0.0256118 0.635715 0.5 0 0
528 1 0.347646 0.579982 0.5 -0.245033 -0.0902623
529 1 0.965121 0.867858 0.5 -0.422039 0.58424
530 1 0.76209 0.587544 0.5 0.730076 -0.29309
531 1 0.470315 0.25162 0.5 -0.386643 0.733941
532 1 0.910819 0.00094109 0.5 -0.31838 -0.188505
533 1 0.999712 0.747001 0.5 0.490612 0.567271
534 1 0.669718 0.876683 0.5 0.194988 -0.224218
535 1 0.133704 0.385873 0.5 -0.134248 0.133765
536 1 0.882673 0.800315 0.5 0.846215 0.0451327
537 1 0.750667 0.786002 0.5 -0.598887 0.311387
538 1 0.680929 0.704692 0.5 -0.0119195 -0.0222876
539 1 0.760557 0.262101 0.5 0.056325 -0.886912
540 1 0.78669 0.925887 0.5 -0.334797 -0.101642
541 1 0.0300731 0.389405 0.5 -0.496553 0.0560409
542 1 0.17823 0.492719 0.5 0.233918 0.26967
543 1 0.523079 0.28031 0.5 0.451383 -0.0872807
544 1 0.978782 0.896099 0.5 0.389371 -0.199782
545 1 0.114195 0.901967 0.5 0.307861 -0.150021
546 1 0.70795 0.277365 0.5 0.259771 -0.529317
547 1 0.0972583 0.535675 0.5 -0.361523 0.161859
548 1 0.70221 0.47399 0.5 -0.281679 -0.43465
549 1 0.00689789 0.603421 0.5 0.435701 -0.261399
550 1 0.91256 0.417372 0.5 -0.402655 0.484134
551 1 0.535361 0.122712 0.5 0.247453 0.213296
552 1 0.0832251 0.00418065 0.5 -0.659651 -0.347858
553 1 0.95338 0.750786 0.5 0.351051 -0.41502
554 1 0.239088 0.853449 0.5 -0.2114 0.0637691
555 1 0.439496 0.937092 0.5 -0.330163 -0.0524577
556 1 0.970801 0.484394 0.5 -0.879662 0.272929
557 1 0.948887 0.708649 0.5 0.0152987 0.254677
558 1 0.535195 0.62569 0.5 0.818411 0.404078
559 1 0.903983 0.511826 0.5 -0.362062 -0.211447
560 1 0.246172 0.846625 0.5 -0.125168 -0.108248
561 1 0.0684357 0.55628 0.5 -0.579843 -0.330721
562 1 0.515795 0.307188 0.5 0.428587 0.431286
563 1 0.103672 0.99646 0.5 0.877159 0.196496
564 1 0.521231 0.212289 0.5 -0.0443769 -0.235074
565 1 0.438125 0.664408 0.5 0.587076 0.200045
566 1 0.747763 0.640396 0.5 -0.679218 -0.580435
567 1 0.170059 0.620425 0.5 0.0974494 -0.167837
568 1 0.920396 0.702114 0.5 -0.447607 0.53898
569 1 0.881428 0.954308 0.5 -0.487915 -0.309392
570 1 0.404743 0.623151 0.5 -0.295435 0.24548
571 1 0.540729 0.355131 0.5 -0.144642 0.176758
572 1 0.813347 0.492766 0.5 0.254271 0.229307
573 1 0.904253 0.903613 0.5 0.1924 -0.489684
574 1 0.0584466 0.757817 0.5 -0.417428 -0.212397
575 1 0.873976 0.705828 0.5 0.471898 0.811812
576 1 0.95311 0.330783 0.5 0.465493 0.353298
577 1 0.753717 0.903297 0.5 0.0850524 0.23405
578 1 0.955614 0.507641 0.5 -0.141387 0.490994
579 1 0.759064 0.133533 0.5 -0.290437 -0.155369
580 1 0.402882 0.890657 0.5 -0.583278 0.0600513
581 1 0.18166 0.71164 0.5 -0.0756268 0.413184
582 1 0.715326 0.654535 0.5 -0.274762 0.171032
583 1 0.813605 0.852476 0.5 0.835915 -0.164937
584 1 0.206407 0.338512 0.5 -0.0341308 -0.609337
585 1 0.776631 0.816128 0.5 0.759658 0.184906
586 1 0.103977 0.361831 0.5 0.0706074 -0.194094
587 1 0.0945355 0.697412 0.5 0.347688 -0.410706
588 1 0.882627 0.597322 0.5 -0.0910243 -0.093491
589 1 0.931417 0.0589483 0.5 0.192467 0.10603
590 1 0.905666 0.633938 0.5 0.35011 0.165466
591 1 0.83706 0.897204 0.5 -0.554363 0.560165
592 1 0.432806 0.711643 0.5 0.823177 0.168617
593 1 0.374257 0.815796 0.5 -0.450368 0.633608
594 1 0.028336 0.961635 0.5 0.51891 -0.616492
595 1 0.19805 0.839472 0.5 -0.318057 -0.313795
596 1 0.892192 0.0183553 0.5 0.658778 0.127389
597 1 0.00822938 0.0195186 0.5 0.0983004 0.0388099
598 1 0.770776 0.0818503 0.5 -0.740813 0.199197
599 1 0.147322 0.203882 0.5 0.199179 -0.743771
600 1 0.723727 0.949273 0.5 -0.197466 -0.220503
601 1 0.797461 0.90333 0.5 0.5689 0.436572
602 1 0.709173 0.0416785 0.5 -0.21129 0.412962
603 1 0.177939 0.990853 0.5 -0.543487 0.334772
604 1 0.130864 0.633857 0.5 -0.060553 -0.159557
605 1 8.87302e-05 0.804574 0.5 0.297502 0.422107
606 1 0.26701 0.0446501 0.5 -0.192219 0.193317
607 1 0.914925 0.961894 0.5 -0.516348 0.164185
608 1 0.0224113 0.125813 0.5 0.281598 -0.736175
609 1 0.703602 0.994985 0.5 -0.278874 -0.329486
610 1 0.124338 0.295505 0.5 0.0994209 -0.651555
611 1 0.921765 0.790706 0.5 -0.119672 0.0367579
612 1 0.0654046 0.0123219 0.5 -0.514632 -0.183727
613 1 0.306898 0.96092 0.5 0.134537 0.353541
614 1 0.878684 0.93041 0.5 0.420463 0.59485
615 1 0.701018 0.928911 0.5 0.22233 -0.843099
616 1 0.123127 0.187234 0.5 0.812487 -0.0904994
617 1 0.238284 0.0202332 0.5 -0.272574 -0.179994
618 1 0.46871 0.443848 0.5 0.823813 -0.236653
619 1 0.918995 0.0576986 0.5 0.262691 0.805157
620 1 0.984785 0.0707805 0.5 -0.152957 0.805452
621 1 0.31734 0.654127 0.5 -0.668343 -0.477479
622 1 0.614466 0.530505 0.5 -0.059032 -0.607684
623 1 0.222749 0.709834 0.5 0.714001 -0.0520741
624 1 0.723347 0.974679 0.5 -0.00962985 -0.0745696
625 1 0.739099 0.099508 0.5 -0.467978 -0.484898
626 1 0.0868541 0.241103 0.5 0.254288 0.720387
627 1 0.204414 0.641603 0.5 0.289911 -0.184853
628 1 0.643301 0.873324 0.5 0.230856 -0.450204
629 1 0.218019 0.0882105 0.5 0.110161 -0.859563
630 1 0.853169 0.13378 0.5 -0.217949 -0.271309
631 1 0.0861542 0.0554799 0.5 -0.752494 -0.457374
632 1 0.198927 0.794601 0.5 -0.390227 -0.306401
633 1 0.980031 0.594064 0.5 0.262093 -0.607639
634 1 0.88159 0.736213 0.5 -0.747534 0.153981
635 1 0.0367183 0.636702 0.5 0.259709 0.756825