ITEM: TIMESTEP
0
ITEM: NUMBER OF ATOMS
9304
ITEM: BOX BOUNDS pp pp pp
-5.8359999999999999e+01 5.8359999999999999e+01
-5.8359999999999999e+01 5.8359999999999999e+01
-5.0000000000000000e-01 5.0000000000000000e-01
ITEM: ATOMS id type xs ys zs c_002[1] c_002[2]
1 1 0.156264 0.153567 0.5 -0.165996 0.653088
2 1 0.0810207 0.212927 0.5 -0.224661 0.876657
3 1 0.0895636 0.942474 0.5 -0.033163 0.321994
4 1 0.951688 0.193372 0.5 0.292892 0.036804
5 1 0.753563 0.271884 0.5 0.0596629 -0.265691
6 1 0.412701 0.0878374 0.5 0.0731219 0.631071
7 1 0.328841 0.148515 0.5 0.671387 0.300732
8 1 0.785864 0.896379 0.5 -0.36753 0.165452
9 1 0.909046 0.148006 0.5 0.862448 0.140632
10 1 0.0224778 0.322144 0.5 -0.301124 0.883776
11 1 0.780291 0.333821 0.5 -0.0254298 -0.0758185
12 1 0.285087 0.281468 0.5 0.29859 0.457619
13 1 0.0699837 0.998306 0.5 -0.257051 0.211378
14 1 0.108373 0.988734 0.5 -0.376231 0.263703
15 1 0.95792 0.767182 0.5 0.650936 -0.230371
16 1 0.916093 0.0467761 0.5 0.109213 0.0686897
17 1 0.0777414 0.864048 0.5 0.165066 0.627686
18 1 0.32765 0.00694488 0.5 -0.301672 0.033775
19 1 0.0609904 0.123034 0.5 -0.233472 -0.095082
20 1 0.0557646 0.933031 0.5 -0.268403 -0.128327
21 1 0.298229 0.122374 0.5 0.553702 0.0749782
22 1 0.174754 0.273597 0.5 -0.372768 -0.291379
23 1 0.0516967 6e-05 0.5 0.559266 0.615151
24 1 0.418155 0.364375 0.5 -0.104757 -0.266861
25 1 0.882703 0.229152 0.5 0.196342 0.200667
26 1 0.064607 0.399179 0.5 -0.366521 -0.139155
27 1 0.982523 0.288988 0.5 0.0573499 0.363539
28 1 0.971323 0.0149947 0.5 0.548544 0.218661
29 1 0.190163 0.181756 0.5 -0.612211 -0.0257291
30 1 0.939938 0.904234 0.5 -0.315508 -0.195087
31 1 0.157194 0.29663 0.5 0.631204 0.168701
32 1 0.137682 0.228674 0.5 -0.373284 0.78693
33 1 0.0447409 0.00843957 0.5 0.340859 0.120386
34 1 0.128424 0.370599 0.5 0.0313884 0.745482
35 1 0.0507927 0.217545 0.5 0 0
36 1 0.0649631 0.34662 0.5 0.761985 -0.00749977
37 1 0.0415627 0.910102 0.5 -0.388098 0.76147
38 1 0.0423854 0.224334 0.5 0.192578 0.374179
39 1 0.0158741 0.367425 0.5 -0.200535 -0.687718
40 1 0.063281 0.890814 0.5 -0.556386 -0.213652
41 1 0.858431 0.87558 0.5 0 0
42 1 0.995902 0.261759 0.5 -0.231258 0.232273
43 1 0.295793 0.162512 0.5 0.413808 0.36513
44 1 0.146133 0.252367 0.5 0.00738582 0.00934936
45 1 0.0892779 0.103137 0.5 0.179382 0.380875
46 1 0.963179 0.165863 0.5 0.892877 -0.08244
47 1 0.886503 0.208999 0.5 -0.528912 -0.253887
48 1 0.923462 0.120727 0.5 0.50938 -0.273724
49 1 0.345637 0.0147832 0.5 0.756625 -0.136776
50 1 0.921989 0.255049 0.5 0.348773 0.0934547
51 1 0.990215 0.0933097 0.5 -0.684615 0.29837
52 1 0.0244949 0.331884 0.5 0.0512888 0.468929
53 1 0.0967496 0.0773508 0.5 0.830339 0.316279
54 1 0.054024 0.184846 0.5 0.0644421 -0.590531
55 1 0.242135 0.379171 0.5 0.459314 0.0326838
56 1 0.560218 0.168983 0.5 0.257651 0.122574
57 1 0.956465 0.230028 0.5 -0.132825 0.112262
58 1 0.952449 0.0758495 0.5 -0.00373618 0.33743
59 1 0.0780594 0.842103 0.5 0.447025 -0.0891644
60 1 0.245102 0.213291 0.5 0.130413 -0.0509005
61 1 0.0929789 0.412885 0.5 0.136849 -0.394945
62 1 0.752461 0.350033 0.5 -0.709811 -0.233909
63 1 0.0708038 0.977808 0.5 -0.134797 -0.154673
64 1 0.110071 0.817343 0.5 -0.346788 -0.583669
65 1 0.345985 0.108598 0.5 0.337068 -0.682224
66 1 0.746421 0.313262 0.5 0.360483 0.287541
67 1 0.88788 0.836394 0.5 -0.331798 0.805497
68 1 0.00360582 0.0197394 0.5 -0.449317 -0.546032
69 1 0.846916 0.978103 0.5 -0.668211 0.186152
70 1 0.795614 0.89979 0.5 -0.753609 0.0270661
71 1 0.29699 0.370012 0.5 -0.0690315 -0.915641
72 1 0.128153 0.547637 0.5 0.7237 0.264663
73 1 0.0286043 0.141493 0.5 -0.436906 -0.3467
74 1 0.126582 0.0553022 0.5 -0.444761 0.331587
75 1 0.149991 0.243128 0.5 -0.318884 0.199036
76 1 0.923041 0.272058 0.5 0.478175 0.203888
77 1 0.415748 0.943621 0.5 0.249854 0.0646669
78 1 0.960876 0.131843 0.5 -0.724731 0.111141
79 1 0.424423 0.328764 0.5 -0.151807 0.23039
80 1 0.135613 0.957098 0.5 0.51054 0.536954
81 1 0.488768 0.330274 0.5 -0.416541 -0.736065
82 1 0.162715 0.13646 0.5 -0.318243 0.843345
83 1 0.985474 0.0711292 0.5 0.261309 0.787754
84 1 0.926148 0.0816797 0.5 0.329771 -0.643357
85 1 0.116926 0.0792837 0.5 0.294242 0.419754
86 1 0.0799135 0.999907 0.5 0.20198 0.556973
87 1 0.00103112 0.160727 0.5 -0.567428 0.476128
88 1 0.0785309 0.193863 0.5 -0.127238 -0.676786
89 1 0.0888155 0.25356 0.5 0.0468886 -0.40229
90 1 0.890325 0.409041 0.5 -0.643009 -0.357399
91 1 0.886929 0.140591 0.5 0.124955 0.132344
92 1 0.874583 0.377314 0.5 0.0869248 0.762355
93 1 0.136787 0.0218135 0.5 -0.00515089 -0.406061
94 1 0.860927 0.946112 0.5 -0.482832 0.727138
95 1 0.0138604 0.175517 0.5 0.264001 0.547581
96 1 0.307209 0.0776469 0.5 -0.105864 -0.349034
97 1 0.207403 0.383295 0.5 -0.261341 0.0254054
98 1 0.853917 0.797937 0.5 -0.312338 -0.116288
99 1 0.872342 0.273234 0.5 0.250117 0.566664
100 1 0.162361 0.750865 0.5 0.476925 0.267241
101 1 0.96795 0.563017 0.5 0.230665 0.228792
102 1 0.945759 0.955246 0.5 -0.0211203 0.135185
103 1 0.116726 0.0374443 0.5 -0.664068 0.385234
104 1 0.0171528 0.157568 0.5 -0.400849 0.815984
105 1 0.828326 0.317425 0.5 0.651584 -0.108741
106 1 0.166651 0.256693 0.5 -0.369453 -0.734979
107 1 0.737011 0.306811 0.5 -0.263683 0.499089
108 1 0.170381 0.156693 0.5 -0.051447 -0.472091
109 1 0.37867 0.0285583 0.5 -0.901205 0.284023
110 1 0.944457 0.229878 0.5 -0.039024 0.457455
111 1 0.336067 0.0707348 0.5 -0.258445 -0.332969
112 1 0.0779255 0.08385 0.5 0.207152 -0.270007
113 1 0.0526846 0.0765414 0.5 -0.879144 -0.36011
114 1 0.0222455 0.227104 0.5 -0.217332 0.156701
115 1 0.188079 0.171935 0.5 -0.382936 0.127136
116 1 0.973503 0.283565 0.5 -0.527951 -0.142907
117 1 0.109367 0.366921 0.5 0.366345 0.597389
118 1 0.0424644 0.276155 0.5 -0.420589 0.384311
119 1 0.918074 0.505099 0.5 0 0
120 1 0.866706 0.428003 0.5 0.376032 0.331689
121 1 0.0897832 0.991791 0.5 -0.348452 0.636542
122 1 0.154653 0.34566 0.5 -0.283866 0.00425636
123 1 0.127531 0.487213 0.5 -0.301683 0.727105
124 1 0.130416 0.113415 0.5 0.473923 -0.0872751
125 1 0.790966 0.918102 0.5 0.801389 0.0239452
126 1 0.21846 0.0460606 0.5 0.698718 0.567482
127 1 0.307288 0.028089 0.5 -0.787292 -0.16189
128 1 0.238796 0.880494 0.5 0.0683695 -0.00803847
129 1 0.0924549 0.11341 0.5 -0.529693 0.37079
130 1 0.0395499 0.139223 0.5 -0.200887 -0.842333
131 1 0.048965 0.137176 0.5 -0.431197 -0.682288
132 1 0.416968 0.668253 0.5 0.0675154 -0.229431
133 1 0.395799 0.180347 0.5 -0.0160063 -0.4269
134 1 0.076136 0.38528 0.5 0.0756002 -0.426442
135 1 0.0868732 0.951706 0.5 -0.51026 0.361333
136 1 0.78732 0.341265 0.5 0.228891 0.02908
137 1 0.226225 0.126378 0.5 -0.374325 -0.296643
138 1 0.256159 0.144238 0.5 -0.159742 -0.0284936
139 1 0.927168 0.311266 0.5 0.22308 -0.208465
140 1 0.248437 0.192024 0.5 0.183285 0.35491
141 1 0.264612 0.24705 0.5 0.524551 0.699317
142 1 0.434826 0.0711786 0.5 0.467097 -0.488333
143 1 0.987444 0.357033 0.5 -0.218083 -0.247568
144 1 0.972733 0.249264 0.5 -0.173905 0.0403062
145 1 0.0679174 0.933142 0.5 -0.498811 -0.119355
146 1 0.0680369 0.136401 0.5 0.0229238 0.297688
147 1 0.909342 0.328244 0.5 -0.465567 0.186096
148 1 0.860208 0.404647 0.5 -0.00525672 0.669326
149 1 0.964068 0.0766164 0.5 0.0764447 0.0747161
150 1 0.000140004 0.0365141 0.5 0.162308 0.213809
151 1 0.283972 0.0930738 0.5 0.757753 0.403596
152 1 0.24246 0.330198 0.5 0.336684 -0.589786
153 1 0.966967 0.270449 0.5 -0.47749 0.11315
154 1 0.282119 0.161076 0.5 -0.22016 0.340008
155 1 0.23049 0.0288525 0.5 -0.0334794 -0.0425771
156 1 0.309312 0.425419 0.5 0.413254 -0.683794
157 1 0.950067 0.889735 0.5 -0.640368 0.0957878
158 1 0.962798 0.279146 0.5 -0.188535 0.540125
159 1 0.0958082 0.422244 0.5 0.0842902 0.340918
160 1 0.960778 0.875006 0.5 -0.0476465 -0.889788
161 1 0.0709413 0.806963 0.5 -0.206301 -0.0520097
162 1 0.0855757 0.0109816 0.5 0.626834 0.516468
163 1 0.0788905 0.0660994 0.5 0.783284 0.167401
164 1 0.320319 0.22295 0.5 0.266501 -0.648083
165 1 0.411162 0.876525 0.5 -0.201127 -0.459086
166 1 0.69486 0.491907 0.5 0.0123712 0.781118
167 1 0.950942 0.22218 0.5 0.278445 -0.484543
168 1 0.952178 0.325253 0.5 0.351492 -0.294461
169 1 0.166579 0.0931475 0.5 0.214626 -0.250253
170 1 0.130057 0.903576 0.5 0.587031 -0.418855
171 1 0.199292 0.952686 0.5 0.395353 -0.0607109
172 1 0.116559 0.520874 0.5 0.664806 -0.356461
173 1 0.00740263 0.361526 0.5 -0.709154 -0.501596
174 1 0.919596 0.111868 0.5 -0.216899 -0.064581
175 1 0.191511 0.210387 0.5 -0.186583 0.564614
176 1 0.0175371 0.356553 0.5 -0.53642 -0.587338
177 1 0.495331 0.15057 0.5 0.0521248 -0.624809
178 1 0.126001 0.477652 0.5 -0.110691 0.49708
179 1 0.0108505 0.965754 0.5 0.160777 0.467695
180 1 0.0250398 0.294212 0.5 -0.0104019 0.914724
181 1 0.172814 0.328613 0.5 -0.568389 0.226091
182 1 0.908412 0.35001 0.5 -0.419428 -0.742798
183 1 0.324476 0.984463 0.5 -0.418897 0.214117
184 1 0.111954 0.0679085 0.5 0.323044 0.408984
185 1 0.997376 0.990181 0.5 -0.604282 0.463748
186 1 0.259203 0.335162 0.5 0.185281 -0.708173
187 1 0.577402 0.0556968 0.5 -0.030945 0.0149216
188 1 0.159315 0.10329 0.5 0.414611 -0.123006
189 1 0.201073 0.13375 0.5 0.692196 0.117279
190 1 0.0162726 0.302745 0.5 -0.242466 0.293192
191 1 0.950036 0.147414 0.5 0.278588 -0.518924
192 1 0.0389957 0.0356173 0.5 0.0139609 -0.277341
193 1 0.0376341 0.792449 0.5 0.211871 -0.48873
194 1 0.893849 0.901284 0.5 0.372616 -0.736374
195 1 0.0348256 0.296017 0.5 -0.206707 0.790016
196 1 0.0745303 0.268005 0.5 -0.228478 -0.208816
197 1 0.255395 0.100856 0.5 -0.487007 -0.628448
198 1 0.18919 0.20089 0.5 -0.795893 0.28251
199 1 0.297562 0.940376 0.5 -0.338004 0.289598
200 1 0.414296 0.286818 0.5 -0.277605 0.65414
201 1 0.440266 0.0631402 0.5 0.427205 0.0535982
202 1 0.0396021 0.233572 0.5 0.0143723 0.0733108
203 1 0.264089 0.117605 0.5 -0.185196 -0.76784
204 1 0.00358172 0.394321 0.5 0.0677109 -0.0775522
205 1 0.0371323 0.160104 0.5 -0.20616 -0.402667
206 1 0.965629 0.987358 0.5 0.133897 0.39782
207 1 0.26349 0.350371 0.5 -0.122512 -0.635101
208 1 0.909408 0.749525 0.5 0.317383 -0.281433
209 1 0.964273 0.289371 0.5 -0.857518 0.444522
210 1 0.119847 0.844392 0.5 0.497367 -0.119058
211 1 0.874666 0.90079 0.5 0.539803 0.0478064
212 1 0.333791 0.156798 0.5 0.171062 0.458718
213 1 0.0988608 0.252677 0.5 0.600117 -0.471478
214 1 0.0650316 0.258196 0.5 0.546514 0.124131
215 1 0.260689 0.0592881 0.5 -0.126236 -0.0189047
216 1 0.043876 0.0803667 0.5 -0.624007 -0.108629
217 1 0.921548 0.319514 0.5 0.548037 -0.300783
218 1 0.0291357 0.906957 0.5 0.426822 0.367488
219 1 0.169752 0.412265 0.5 -0.825413 0.157711
220 1 0.282248 0.830765 0.5 0 0
221 1 0.0366788 0.359757 0.5 -0.51774 -0.0681825
222 1 0.883072 0.035842 0.5 -0.676339 0.557748
223 1 0.0415152 0.0907749 0.5 -0.789094 -0.519154
224 1 0.992763 0.337248 0.5 0.159388 -0.627501
225 1 0.00841246 0.945609 0.5 -0.310291 -0.157313
226 1 0.012224 0.193897 0.5 0.789782 0.337223
227 1 0.922472 0.197311 0.5 -0.353374 -0.0284707
228 1 0.0296656 0.0370273 0.5 0.0823069 -0.607895
229 1 0.937534 0.0796779 0.5 0.228464 -0.572573
230 1 0.0962257 0.132967 0.5 0.618445 -0.176912
231 1 0.103689 0.410957 0.5 0.472408 -0.0338187
232 1 0.170044 0.190442 0.5 -0.816015 0.226628
233 1 0.0928512 0.123215 0.5 -0.317741 0.180702
234 1 0.935166 0.282042 0.5 0.0919554 0.514602
235 1 0.259813 0.194343 0.5 0.716554 0.481412
236 1 0.954619 0.21153 0.5 -0.0206195 -0.936928
237 1 0.0868376 0.0359931 0.5 0.0981658 0.0808146
238 1 0.00618647 0.0554041 0.5 -0.0297882 0.212154
239 1 0.917465 0.263574 0.5 0.405132 0.230396
240 1 0.241689 0.102519 0.5 0.704553 0.220157
241 1 0.997979 0.229258 0.5 -0.198334 -0.0486479
242 1 0.917197 0.938944 0.5 0.676973 0.412314
243 1 0.26312 0.203635 0.5 0.404936 0.299427
244 1 0.0437043 0.479736 0.5 0.108114 0.145766
245 1 0.0403463 0.0230622 0.5 -0.328498 -0.442739
246 1 0.174364 0.138599 0.5 -0.345999 0.793609
247 1 0.18952 0.112569 0.5 0.400722 0.285728
248 1 0.0294261 0.443263 0.5 -0.266337 -0.312768
249 1 0.159356 0.988888 0.5 0.543234 -0.733664
250 1 0.896044 0.274823 0.5 0.338114 0.313671
251 1 0.780186 0.833909 0.5 0.141975 -0.521923
252 1 0.0970039 0.158817 0.5 -0.524909 -0.52042
253 1 0.780882 0.864459 0.5 -0.663628 -0.0894359
254 1 0.0398964 0.211199 0.5 0.00320325 -0.0362644
255 1 0.402501 0.99012 0.5 -0.35602 0.165254
256 1 0.938016 0.752715 0.5 -0.107995 -0.287102
257 1 0.0235175 0.283155 0.5 -0.153009 0.373739
258 1 0.989533 0.116799 0.5 -0.326407 -0.188648
259 1 0.810937 0.487083 0.5 0.198768 0.0653994
260 1 0.061646 0.42603 0.5 -0.451298 0.551665
261 1 0.104704 0.833142 0.5 0.500135 0.391947
262 1 0.939863 0.385255 0.5 -0.0442132 0.00292091
263 1 0.0301451 0.00322701 0.5 -0.463397 0.597339
264 1 0.885472 0.183895 0.5 -0.313072 0.289751
265 1 0.969787 0.998767 0.5 -0.090961 0.547167
266 1 0.0803161 0.435908 0.5 -0.349661 0.898671
267 1 0.961689 0.950111 0.5 -0.243321 0.148316
268 1 0.476086 0.36594 0.5 -0.361235 -0.0370008
269 1 0.218586 0.297091 0.5 -0.199385 0.377242
270 1 0.910586 0.270284 0.5 0.231788 0.752602
271 1 0.953851 0.165536 0.5 0.88757 0.0196434
272 1 0.0139526 0.257537 0.5 -0.349293 -0.220262
273 1 0.0228971 0.0193614 0.5 -0.549407 0.0983456
274 1 0.0474046 0.952481 0.5 0.350492 0.604065
275 1 0.838636 0.189522 0.5 -0.333639 0.810072
276 1 0.198758 0.37941 0.5 0.439193 -0.03369
277 1 0.130856 0.499373 0.5 -0.0885595 0.691706
278 1 0.91307 0.402006 0.5 -0.254378 -0.363057
279 1 0.955454 0.0298553 0.5 0.0724657 0.137172
280 1 0.00579307 0.9834 0.5 -0.623425 0.743233
281 1 0.954337 0.00470465 0.5 0.383791 0.10199
282 1 0.0994443 0.366378 0.5 0.26188 0.570309
283 1 0.955253 0.366206 0.5 0.424252 0.109559
284 1 0.145633 0.955641 0.5 0.136713 0.411446
285 1 0.968033 0.139655 0.5 -0.586544 -0.240119
286 1 0.0697818 0.198041 0.5 -0.735047 -0.387895
287 1 0.799268 0.332762 0.5 0.0447315 -0.200767
288 1 0.883511 0.864895 0.5 -0.354354 0.870321
289 1 0.0626237 0.82376 0.5 -0.397164 0.158657
290 1 0.876537 0.932427 0.5 -0.144953 0.738157
291 1 0.276193 0.378182 0.5 0.0697769 -0.0527087
292 1 0.0813254 0.788721 0.5 -0.538662 -0.627197
293 1 0.881539 0.683437 0.5 0.515231 0.262497
294 1 0.293795 0.200722 0.5 -0.39349 -0.352042
295 1 0.891164 0.506451 0.5 -0.261251 -0.183949
296 1 0.160891 0.408228 0.5 -0.33375 -0.116774
297 1 0.383704 0.329343 0.5 0.911034 0.118499
298 1 0.173277 0.338486 0.5 -0.918366 -0.0545321
299 1 0.998365 0.556826 0.5 0.158821 -0.181511
300 1 0.182498 0.131639 0.5 -0.270783 0.541725
301 1 0.932249 0.583412 0.5 0.256091 -0.370558
302 1 0.923544 0.565331 0.5 -0.693476 0.0560221
303 1 0.232826 0.50944 0.5 0.686988 -0.493152
304 1 0.320534 0.310561 0.5 0.0485851 0.190162
305 1 0.0540213 0.547082 0.5 0.158852 0.0177815
306 1 0.843219 0.598488 0.5 -0.62453 0.608231
307 1 0.113246 0.678429 0.5 0.429146 0.282459
308 1 0.127164 0.518844 0.5 0.572203 0.202736
309 1 0.153643 0.638524 0.5 -0.293586 0.655852
310 1 0.0716986 0.288519 0.5 -0.11242 0.218076
311 1 0.945914 0.404732 0.5 -0.260029 0.411344
312 1 0.325679 0.101786 0.5 -0.207248 -0.0845765
313 1 0.0655844 0.305902 0.5 -0.196663 0.134319
314 1 0.125912 0.334873 0.5 -0.211895 0.523331
315 1 0.129418 0.294986 0.5 0.604956 -0.493188
316 1 0.473862 0.408223 0.5 -0.403112 0.41034
317 1 0.0481677 0.146433 0.5 -0.43799 -0.852453
318 1 0.148364 0.392361 0.5 0.702065 -0.391414
319 1 0.0704561 0.0770898 0.5 -0.517398 -0.124675
320 1 0.379904 0.0509084 0.5 -0.804776 -0.021388
321 1 0.867009 0.475388 0.5 0.151486 -0.165415
322 1 0.333993 0.39267 0.5 -0.822577 0.103038
323 1 0.293279 0.299307 0.5 0.0320269 0.0971667
324 1 0.0916786 0.142707 0.5 0.406922 -0.647682
325 1 0.062529 0.441132 0.5 0.0525444 0.265835
326 1 0.0196949 0.556044 0.5 0.347168 0.734943
327 1 0.232958 0.309308 0.5 -0.291929 0.720637
328 1 0.764871 0.418964 0.5 0.25985 0.191942
329 1 0.012717 0.402793 0.5 -0.69897 -0.525677
330 1 0.759726 0.443791 0.5 0.397543 -0.135075
331 1 0.0638684 0.180297 0.5 -0.318065 -0.752164
332 1 0.0530742 0.479064 0.5 0.621143 -0.0900006
333 1 0.842546 0.557633 0.5 0.313417 -0.494116
334 1 0.271878 0.156654 0.5 -0.599178 -0.393059
335 1 0.0592987 0.355521 0.5 0.675684 0.535492
336 1 0.740032 0.541096 0.5 -0.10811 0.685058
337 1 0.282856 0.55992 0.5 0.581538 -0.189463
338 1 0.388408 0.449649 0.5 0.283666 0.518325
339 1 0.0955528 0.500617 0.5 0.151328 -0.689191
340 1 0.101794 0.0859694 0.5 0.595565 0.548128
341 1 0.89849 0.236659 0.5 0.414349 0.174802
342 1 0.198861 0.363058 0.5 -0.0611221 0.0741226
343 1 0.104692 0.242941 0.5 0.735033 0.0579921
344 1 0.322189 0.425684 0.5 0.108308 -0.608424
345 1 0.175865 0.0449584 0.5 -0.733073 0.24765
346 1 0.303525 0.741422 0.5 -0.157511 -0.106945
347 1 0.0271638 0.303541 0.5 0.132132 0.851523
348 1 0.352743 0.143279 0.5 -0.311533 -0.892496
349 1 0.412565 0.48926 0.5 -0.878109 -0.14956
350 1 0.0324277 0.0761652 0.5 -0.437625 0.0154144
351 1 0.96818 0.350821 0.5 -0.183058 0.533221
352 1 0.021093 0.428963 0.5 -0.911615 0.0134855
353 1 0.072355 0.442889 0.5 -0.161884 0.939601
354 1 0.121337 0.495921 0.5 -0.14326 0.755152
355 1 0.924751 0.608087 0.5 -0.840962 0.0966335
356 1 0.190715 0.554588 0.5 -0.113826 0.441854
357 1 0.0110728 0.422611 0.5 -0.84566 0.00783608
358 1 0.2941 0.380114 0.5 -0.435418 -0.83411
359 1 0.991403 0.347268 0.5 0.0851006 -0.503773
360 1 0.0414254 0.129425 0.5 0.247136 -0.587367
361 1 0.966037 0.508571 0.5 0.494983 0.515848
362 1 0.103011 0.120401 0.5 0.0316505 -0.0439163
363 1 0.0612335 0.704976 0.5 0.550032 -0.122962
364 1 0.934013 0.317636 0.5 0.64949 -0.58427
365 1 0.0274854 0.732717 0.5 -0.729021 0.163363
366 1 0.955527 0.295519 0.5 -0.668706 0.224207
367 1 0.26404 0.149308 0.5 -0.482879 -0.481537
368 1 0.141823 0.427484 0.5 -0.28263 -0.0678218
369 1 0.99494 0.373491 0.5 0 0
370 1 0.132667 0.455314 0.5 -0.242886 0.116443
371 1 0.318226 0.472456 0.5 0.461005 -0.262407
372 1 0.0949465 0.341918 0.5 -0.206823 -0.301184
373 1 0.048072 0.309613 0.5 -0.371069 0.746492
374 1 0.234741 0.698275 0.5 -0.0667066 -0.0227258
375 1 0.971703 0.454921 0.5 0 0
376 1 0.0867208 0.347964 0.5 -0.26885 0.378118
377 1 0.40466 0.30882 0.5 0.037174 -0.218135
378 1 0.434229 0.626598 0.5 -0.114329 -0.234315
379 1 0.908134 0.052488 0.5 -0.416957 0.232163
380 1 0.0816617 0.285101 0.5 0.295915 -0.157719
381 1 0.191011 0.370054 0.5 0.381393 -0.296768
382 1 0.0597421 0.20123 0.5 -0.631641 -0.337925
383 1 0.511992 0.129613 0.5 0.15688 0.186816
384 1 0.987931 0.983961 0.5 -0.728363 0.170024
385 1 0.908466 0.427224 0.5 -0.395076 0.610398
386 1 0.116377 0.413887 0.5 -0.753863 0.106603
387 1 0.98164 0.307642 0.5 0.603579 0.290998
388 1 0.962265 0.5714 0.5 -0.0296412 0.310754
389 1 0.0752205 0.503203 0.5 0.206019 -0.760094
390 1 0.475157 0.100998 0.5 0.319449 0.126651
391 1 0.0593524 0.132426 0.5 -0.685925 -0.504245
392 1 0.869432 0.891696 0.5 -0.191303 0.0474678
393 1 0.021112 0.11689 0.5 0.212364 0.417492
394 1 0.0688652 0.649091 0.5 0.00750525 -0.215852
395 1 0.903655 0.186236 0.5 -0.671095 0.0384642
396 1 0.379524 0.405151 0.5 0.0121793 -0.587614
397 1 0.22069 0.605694 0.5 -0.336673 -0.410443
398 1 0.886789 0.254492 0.5 0.265939 -0.0659394
399 1 0.133256 0.326198 0.5 -0.379758 0.198822
400 1 0.0202242 0.677858 0.5 -0.350204 -0.270542
401 1 0.0518074 0.512472 0.5 0.0123719 0.41197
402 1 0.946985 0.299907 0.5 -0.822025 0.328072
403 1 0.109756 0.171116 0.5 0.299113 0.428848
404 1 0.927735 0.2627 0.5 0.902739 -0.218684
405 1 0.0636944 0.450648 0.5 0.179166 0.666519
406 1 0.159673 0.558149 0.5 0.54804 0.405129
407 1 0.0486333 0.490083 0.5 0.0866403 -0.626362
408 1 0.124877 0.408824 0.5 -0.507917 -0.199256
409 1 0.155601 0.270202 0.5 0 0
410 1 0.960736 0.584327 0.5 -0.617736 -0.33428
411 1 0.0548344 0.346733 0.5 0.542066 0.375555
412 1 0.11506 0.308432 0.5 -0.0196757 -0.191093
413 1 0.184704 0.643602 0.5 -0.0693073 -0.481626
414 1 0.0238382 0.0911352 0.5 -0.813077 0.123892
415 1 0.134483 0.711297 0.5 0.463721 0.272898
416 1 0.127483 0.0856958 0.5 0.265894 -0.0309939
417 1 0.981846 0.40936 0.5 -0.0303378 0.462391
418 1 0.201844 0.297938 0.5 -0.530547 0.342741
419 1 0.958102 0.155807 0.5 0.490681 -0.67873
420 1 0.518193 0.172771 0.5 0.366952 -0.469045
421 1 0.231966 0.229174 0.5 -0.618787 0.685242
422 1 0.974212 0.240046 0.5 -0.36181 -0.268128
423 1 0.133018 0.529414 0.5 0.116222 0.324558
424 1 0.319094 0.619255 0.5 -0.218317 0.0844363
425 1 0.142776 0.473738 0.5 0.396326 0.678045
426 1 0.196817 0.419258 0.5 -0.564786 0.0596969
427 1 0.137966 0.639757 0.5 0.287094 -0.243415
428 1 0.22171 0.306573 0.5 0.140499 0.464984
429 1 0.342215 0.146803 0.5 0.0442096 -0.56324
430 1 0.0692774 0.355631 0.5 0.902089 0.115456
431 1 0.0816729 0.471107 0.5 0.389406 -0.0104906
432 1 0.381815 0.251346 0.5 0.0825147 0.601389
433 1 0.125346 0.247672 0.5 0.500669 0.455239
434 1 0.807242 0.503802 0.5 0.418516 0.690758
435 1 0.837202 0.386359 0.5 -0.168991 0.711194
436 1 0.163745 0.289281 0.5 0.048675 0.110809
437 1 0.138698 0.883761 0.5 0.888868 -0.0211735
438 1 0.136758 0.39486 0.5 -0.0291384 -0.613248
439 1 0.112483 0.331592 0.5 -0.103869 0.1014
440 1 0.0147735 0.54594 0.5 0.347304 0.327036
441 1 0.307506 0.173692 0.5 0.215342 0.265299
442 1 0.0405029 0.409629 0.5 -0.593152 0.108897
443 1 0.054098 0.914142 0.5 0.24508 0.301359
444 1 0.200351 0.339883 0.5 -0.758013 -0.170672
445 1 0.942063 0.617835 0.5 -0.884559 0.0572563
446 1 0.341402 0.35508 0.5 -0.513081 0.105411
447 1 0.0149093 0.246776 0.5 -0.68564 -0.406948
448 1 0.0611494 0.0936938 0.5 -0.453616 -0.382286
449 1 0.145518 0.269371 0.5 0.374257 0.524245
450 1 0.0774638 0.425069 0.5 0.304497 0.308848
451 1 0.0214813 0.419178 0.5 -0.861979 -0.162415
452 1 0.124582 0.428813 0.5 -0.851209 0.238965
453 1 0.118782 0.36923 0.5 0.175782 0.695046
454 1 0.862894 0.743291 0.5 0.471801 -0.125836
455 1 0.0975063 0.472292 0.5 -0.456847 0.0610711
456 1 0.988578 0.696902 0.5 -0.0012072 0.142694
457 1 0.0858331 0.489646 0.5 -0.0963693 -0.604056
458 1 4.79928e-05 0.316902 0.5 0.528913 -0.0620574
459 1 0.141414 0.321673 0.5 -0.703201 0.0319532
460 1 0.149246 0.567218 0.5 -0.354916 0.322695
461 1 0.42054 0.516618 0.5 0.801143 -0.179792
462 1 0.10744 0.452788 0.5 -0.186003 0.534136
463 1 0.0406241 0.100997 0.5 -0.3233 -0.180139
464 1 0.258156 0.481559 0.5 -0.186253 -0.0928948
465 1 0.216273 0.546666 0.5 -0.498989 -0.73625
466 1 0.0973846 0.27831 0.5 0.429177 0.422318
467 1 0.129357 0.570616 0.5 0.537619 0.543816
468 1 0.096931 0.450251 0.5 -0.0894596 0.552255
469 1 0.119586 0.46999 0.5 0.416114 0.339761
470 1 0.226863 0.136354 0.5 -0.783078 0.224521
471 1 0.162734 0.863371 0.5 -0.0913355 -0.444215
472 1 0.019587 0.217394 0.5 -0.252952 0.796511
473 1 0.0886942 0.206616 0.5 -0.0622576 0.621423
474 1 0.147725 0.595127 0.5 0.725707 0.100085
475 1 0.134295 0.580217 0.5 0.370376 0.618751
476 1 0.221377 0.868932 0.5 0.198789 0.033605
477 1 0.248405 0.42086 0.5 0.133109 -0.513439
478 1 0.039161 0.192927 0.5 0.570954 0.314665
479 1 0.377183 0.447555 0.5 0.0114143 0.342518
480 1 0.258862 0.363868 0.5 -0.145288 -0.0466302
481 1 0.184089 0.459188 0.5 -0.372976 -0.468131
482 1 0.0600241 0.333539 0.5 -0.136271 0.290961
483 1 0.162313 0.502989 0.5 0.231024 -0.165847
484 1 0.150081 0.422251 0.5 -0.428996 -0.576139
485 1 0.0158003 0.0845249 0.5 -0.499867 0.182989
486 1 0.984281 0.477014 0.5 -0.338021 0.237973
487 1 0.866035 0.314946 0.5 0.13431 -0.212111
488 1 0.149382 0.555529 0.5 -0.426455 0.155267
489 1 0.201875 0.329084 0.5 -0.455548 -0.357612
490 1 0.742935 0.562872 0.5 0.269742 0.773476
491 1 0.234424 0.154477 0.5 -0.436986 -0.498167
492 1 0.407583 0.669679 0.5 0.300287 -0.437837
493 1 0.485871 0.373886 0.5 -0.368666 -0.259891
494 1 0.0361153 0.642652 0.5 -0.071129 0.867437
495 1 0.776286 0.495365 0.5 -0.764146 0.506911
496 1 0.379735 0.242259 0.5 0.18187 0.293545
497 1 0.115583 0.163304 0.5 0.685346 -0.0715895
498 1 0.145914 0.365788 0.5 0.311954 0.827634
499 1 0.141056 0.411362 0.5 0.336363 -0.436058
500 1 0.18594 0.427374 0.5 -0.558713 -0.262077
501 1 0.0332673 0.433538 0.5 0.0149863 -0.232076
502 1 0.995301 0.912746 0.5 -0.807901 -0.106839
503 1 0.101226 0.177303 0.5 -0.343627 -0.453394
504 1 0.288753 0.231172 0.5 -0.562857 -0.254614
505 1 0.227643 0.350045 0.5 -0.475895 0.00708818
506 1 0.230083 0.442979 0.5 -0.755004 0.114187
507 1 0.570446 0.223051 0.5 0.581564 -0.456061
508 1 0.0203021 0.44996 0.5 -0.832744 -0.073469
509 1 0.995694 0.401148 0.5 -0.158832 0.12317
510 1 0.061237 0.0720324 0.5 -0.985797 0.0754733
511 1 0.945288 0.286499 0.5 -0.0516958 0.222391
512 1 0.143122 0.33262 0.5 -0.702688 0.53572
513 1 0.94509 0.986948 0.5 0.674001 0.259615
514 1 0.262616 0.526681 0.5 0.573201 -0.383339
515 1 0.0550403 0.293741 0.5 -0.0281657 0.808334
516 1 0.00708692 0.307775 0.5 -0.241908 0.374638
517 1 0.102713 0.216108 0.5 0.832399 0.299978
518 1 0.095021 0.391003 0.5 -0.0244666 -0.135187
519 1 0.0349878 0.28262 0.5 -0.0787401 0.228252
520 1 0.093266 0.355399 0.5 -0.0866522 0.155004
521 1 0.100321 0.732094 0.5 0.0355561 0.122325
522 1 0.0208949 0.43889 0.5 -0.92109 -0.190723
523 1 0.140036 0.24121 0.5 0.272785 0.71155
524 1 0.931793 0.357391 0.5 0 0
525 1 0.115348 0.588164 0.5 0.214703 0.443726
526 1 0.393673 0.431764 0.5 -0.179185 0.625041
527 1 0.966955 0.25771 0.5 0.16673 0.202986
528 1 0.694764 0.433654 0.5 0.609666 -0.154371
529 1 0.0890847 0.192633 0.5 -0.434649 -0.445421
530 1 0.946754 0.468516 0.5 -0.289741 0.706496
531 1 0.0592458 0.162799 0.5 -0.101262 -0.43772
532 1 0.0248496 0.100952 0.5 -0.338054 0.262784
533 1 0.912165 0.379241 0.5 -0.777074 -0.170117
534 1 0.725435 0.38967 0.5 0.949781 0.178406
535 1 0.155908 0.485477 0.5 -0.233276 0.466927
536 1 0.222762 0.636191 0.5 0.00184972 -0.0249836
537 1 0.950325 0.378041 0.5 0.0634307 0.435989
538 1 0.96317 0.400453 0.5 -0.551877 0.311878
539 1 0.0722495 0.240053 0.5 0.639905 0.0747539
540 1 0.305446 0.810062 0.5 -0.113139 -0.0781861
541 1 0.165415 0.447214 0.5 -0.37398 -0.550758
542 1 0.168603 0.437501 0.5 -0.406396 -0.643971
543 1 0.178503 0.588376 0.5 -0.199653 -0.753148
544 1 0.164454 0.766509 0.5 0.668539 -0.405375
545 1 0.169246 0.426828 0.5 -0.517151 -0.430156
546 1 0.766571 0.620525 0.5 0.678875 -0.152074
547 1 0.12749 0.641567 0.5 0.457027 -0.395244
548 1 0.0585246 0.142994 0.5 -0.739863 -0.227874
549 1 0.117453 0.278622 0.5 0.148908 -0.419956
550 1 0.386329 0.192589 0.5 0.306731 0.0491897
551 1 0.163549 0.361065 0.5 -0.0335472 0.247543
552 1 0.118155 0.266494 0.5 -0.31824 -0.0316529
553 1 0.112974 0.57781 0.5 0.272666 0.627537
554 1 0.164747 0.458478 0.5 -0.463951 0.212522
555 1 0.38469 0.0990399 0.5 -0.324382 0.497304
556 1 0.0474446 0.299842 0.5 -0.3971 0.57181
557 1 0.949177 0.977198 0.5 0.0818087 0.140083
558 1 0.954444 0.396694 0.5 -0.0271232 0.836192
559 1 0.0961958 0.297434 0.5 -0.172518 0.388255
560 1 0.888622 0.549083 0.5 -0.715589 0.0323968
561 1 0.146655 0.10959 0.5 -0.375371 0.242253
562 1 0.992637 0.311251 0.5 0.128788 0.300012
563 1 0.335636 0.336483 0.5 0.394825 0.710562
564 1 0.222077 0.215056 0.5 -0.597564 -0.0813174
565 1 0.169246 0.16806 0.5 -0.852319 -0.199582
566 1 0.0907444 0.537095 0.5 0.0382874 -0.302901
567 1 0.919754 0.373578 0.5 0.160009 0.294128
568 1 0.868323 0.454665 0.5 0.0870277 0.398135
569 1 0.982815 0.338373 0.5 0.237644 -0.185075
570 1 0.987697 0.557204 0.5 -0.179373 -0.361758
571 1 0.136666 0.520652 0.5 0.405482 0.64794
572 1 0.0445193 0.0500306 0.5 -0.695763 -0.350357
573 1 0.878911 0.53491 0.5 -0.500821 0.709421
574 1 0.351518 0.307781 0.5 0.724638 0.274271
575 1 0.0525537 0.611187 0.5 -0.558806 -0.51143
576 1 0.272762 0.146079 0.5 -0.596375 -0.557542
577 1 0.167391 0.399824 0.5 0.247756 -0.328447
578 1 0.0665482 0.494047 0.5 -0.150238 -0.702652
579 1 0.378049 0.978221 0.5 0.610345 -0.0412424
580 1 0.23186 0.174625 0.5 -0.555024 -0.222536
581 1 0.0969693 0.262205 0.5 0.13391 -0.604653
582 1 0.00756221 0.465955 0.5 -0.3093 -0.780931
583 1 0.929859 0.906087 0.5 0.11041 -0.231385
584 1 0.0373097 0.306467 0.5 -0.244361 0.840749
585 1 0.0572151 0.392248 0.5 -0.637317 -0.217681
586 1 0.33142 0.120857 0.5 0.471264 -0.592307
587 1 0.129162 0.588413 0.5 0.181639 0.209448
588 1 0.0760737 0.46336 0.5 0.0799019 0.550363
589 1 0.0858045 0.264724 0.5 -0.101108 -0.474228
590 1 0.00305638 0.649594 0.5 -0.535183 0.309576
591 1 0.16442 0.303289 0.5 -0.0208636 -0.0796301
592 1 0.995554 0.012079 0.5 0.164995 -0.615791
593 1 0.997341 0.499616 0.5 -0.605301 -0.305577
594 1 0.0814519 0.654605 0.5 0.0286586 0.826335
595 1 0.960595 0.668265 0.5 0.30583 0.0380005
596 1 0.974742 0.619195 0.5 -0.861276 -0.0483114
597 1 0.290275 0.444907 0.5 0.164468 -0.549751
598 1 0.709413 0.765302 0.5 0.120315 -0.467218
599 1 0.3702 0.251678 0.5 -0.0519635 0.718025
600 1 0.289034 0.0847223 0.5 0.620342 0.0482825
601 1 0.879417 0.57922 0.5 -0.343643 0.351847
602 1 0.00572701 0.0911392 0.5 -0.563679 0.259404
603 1 0.116101 0.435388 0.5 -0.85363 0.0110476
604 1 0.255025 0.7344 0.5 -0.404369 0.766424
605 1 0.871874 0.684111 0.5 -0.0427699 -0.272895
606 1 0.205527 0.214719 0.5 -0.46354 0.0117218
607 1 0.170429 0.389273 0.5 -0.163006 -0.717245
608 1 0.371587 0.777497 0.5 -0.00421142 0.301863
609 1 0.103546 0.586022 0.5 0.210594 0.699916
610 1 0.227701 0.0465383 0.5 0.166542 0.129496
611 1 0.0601981 0.617793 0.5 -0.298247 -0.545902
612 1 0.251202 0.688602 0.5 -0.280791 -0.820741
613 1 0.97253 0.544658 0.5 0.516341 -0.146074
614 1 0.258672 0.873236 0.5 -0.590118 -0.276895
615 1 0.0475995 0.787934 0.5 -0.298915 0.441256
616 1 0.238368 0.536904 0.5 -0.336883 -0.465974
617 1 0.753737 0.637843 0.5 -0.288886 0.076026
618 1 0.958242 0.737023 0.5 -0.24998 0.824026
619 1 0.22641 0.988992 0.5 -0.489835 -0.460305
620 1 0.860649 0.589335 0.5 -0.466042 -0.0234694
621 1 0.210394 0.617967 0.5 -0.278398 0.051694
622 1 0.123752 0.709821 0.5 0.143463 0.471004
623 1 0.85103 0.869853 0.5 -0.147672 -0.537586
624 1 0.114802 0.502948 0.5 -0.292317 0.156275
625 1 0.97264 0.758773 0.5 -0.0403891 -0.493869
626 1 0.145212 0.632797 0.5 -0.020127 0.575036
627 1 0.932171 0.602005 0.5 -0.249447 -0.176092
628 1 0.733121 0.640881 0.5 0.568099 0.594556
629 1 0.000150329 0.530305 0.5 -0.358311 -0.277985
630 1 0.851247 0.430569 0.5 -0.00232217 -0.494304
631 1 0.0762574 0.573683 0.5 -0.134183 -0.606425
632 1 0.00762813 0.761923 0.5 0.357148 -0.161033