# LAMMPS data file written by Ovito 3.7.11
9304 atoms
1 atom types
-58.36 58.36 xlo xhi
-58.36 58.36 ylo yhi
-0.5 0.5 zlo zhi

Atoms  # atomic

1 1 -12.83371416 -53.517042088 0.0
2 1 -30.45878432 -42.70889848 0.0
3 1 -43.13551008 0.3273996 0.0
4 1 53.77243712 44.92482768 0.0
5 1 54.75475264 1.96696544 0.0
6 1 -15.75066368 42.24376928 0.0
7 1 -29.04880672 8.98405512 0.0
8 1 43.55115 20.01012664 0.0
9 1 48.52820752 -50.36666424 0.0
10 1 -50.765718248 -43.94788128 0.0
11 1 29.58630232 -32.42691696 0.0
12 1 18.15439536 -17.76396696 0.0
13 1 -18.71756936 -51.28425852 0.0
14 1 -28.17469064 39.8908108 0.0
15 1 43.32961544 3.08560992 0.0
16 1 39.4706188 -27.33944232 0.0
17 1 -26.3005176 -54.99338668 0.0
18 1 1.6673452 -36.19942408 0.0
19 1 19.82909392 55.24567696 0.0
20 1 -24.17808112 43.06010896 0.0
21 1 -11.62951392 16.79927616 0.0
22 1 2.71245608 33.53750776 0.0
23 1 -51.261463104 47.19584872 0.0
24 1 10.92195728 48.41802384 0.0
25 1 -2.8252076 32.16896576 0.0
26 1 -39.81809424 -12.02227672 0.0
27 1 -45.20787368 -54.252483136 0.0
28 1 49.1081892 -24.42961272 0.0
29 1 -17.16110816 -32.63129368 0.0
30 1 -34.45551056 -15.66359056 0.0
31 1 -6.50410528 -29.43946856 0.0
32 1 -11.8464964 -1.94852368 0.0
33 1 12.61007864 20.28640288 0.0
34 1 7.54408048 -10.14191752 0.0
35 1 -1.92261184 -34.75723176 0.0
36 1 13.79642072 -56.817615232 0.0
37 1 -44.88782744 7.72207848 0.0
38 1 -10.3408084 -17.94990192 0.0
39 1 -31.93482544 -53.81673236 0.0
40 1 11.22239456 -51.222315216 0.0
41 1 38.44091496 -32.7189504 0.0
42 1 39.5062184 -29.52268992 0.0
43 1 6.49675192 41.7980156 0.0
44 1 -5.46027832 43.09162336 0.0
45 1 -1.6714304 -29.5891036 0.0
46 1 -13.38229816 51.17961904 0.0
47 1 -11.3235908 -20.53933512 0.0
48 1 21.67105224 -30.2024672 0.0
49 1 15.93543144 20.0781744 0.0
50 1 29.85884352 -50.752937408 0.0
51 1 23.3953568 -45.63238432 0.0
52 1 -48.202465344 -12.01550696 0.0
53 1 33.24220616 -7.52283744 0.0
54 1 18.10840768 45.89348696 0.0
55 1 -5.13708064 32.96954824 0.0
56 1 -3.92541032 -21.84776632 0.0
57 1 44.75441648 -31.23870736 0.0
58 1 35.20380248 -43.79474464 0.0
59 1 -49.24813648 -51.438433968 0.0
60 1 38.84021408 24.97177712 0.0
61 1 -13.39688816 -32.85119416 0.0
62 1 27.25983928 -30.4119796 0.0
63 1 -17.78521 41.96410816 0.0
64 1 52.68355624 37.429186 0.0
65 1 -21.8313088 25.79243544 0.0
66 1 -27.18548864 -52.941063904 0.0
67 1 39.80070296 -55.46114208 0.0
68 1 -35.24348728 39.93878272 0.0
69 1 18.19291296 -31.47074672 0.0
70 1 54.02957128 -49.668025008 0.0
71 1 10.87001688 14.03803112 0.0
72 1 -26.66515088 15.85979688 0.0
73 1 -52.445610848 -16.02250456 0.0
74 1 -34.42528008 35.28118784 0.0
75 1 -47.9319434 57.35399032 0.0
76 1 42.6243932 -41.04832304 0.0
77 1 36.73832032 55.40091456 0.0
78 1 -34.52379176 24.16068984 0.0
79 1 30.30296312 -34.12589328 0.0
80 1 46.22648912 8.35610152 0.0
81 1 -1.71730136 -24.75444448 0.0
82 1 -49.342889776 50.50614464 0.0
83 1 2.477382 38.51339808 0.0
84 1 4.44983328 51.80827296 0.0
85 1 -39.24231448 48.1604228 0.0
86 1 -42.55634544 47.324124 0.0
87 1 13.76198832 -28.92018128 0.0
88 1 -49.151772448 38.69314688 0.0
89 1 20.989174 -26.88925328 0.0
90 1 -47.530496632 -34.66607344 0.0
91 1 -55.802384672 -33.2640328 0.0
92 1 -1.9678992 39.37047304 0.0
93 1 42.89424984 36.68848088 0.0
94 1 45.63623608 52.13660632 0.0
95 1 -23.2494568 -49.86021616 0.0
96 1 -8.1027024 19.40621736 0.0
97 1 -13.76922496 -15.87893896 0.0
98 1 -23.00714608 40.898688 0.0
99 1 3.2763304 -34.62872304 0.0
100 1 -53.059663096 53.2453296 0.0
101 1 -42.90498808 20.26586016 0.0
102 1 34.77835808 -50.741066984 0.0
103 1 -38.50149264 54.56403216 0.0
104 1 55.90176008 -45.182312 0.0
105 1 6.54168912 50.36374624 0.0
106 1 -8.41037632 57.83872848 0.0
107 1 -36.01010424 -36.06636328 0.0
108 1 18.03592456 32.49064608 0.0
109 1 24.14960144 -35.29017528 0.0
110 1 -46.10510032 -52.736243648 0.0
111 1 -14.27812416 28.09718856 0.0
112 1 -18.39413824 -48.262832928 0.0
113 1 -25.9275972 39.410508 0.0
114 1 -46.4423044 -39.93469752 0.0
115 1 -43.85859048 21.0341112 0.0
116 1 -20.2754312 -45.06010616 0.0
117 1 -51.526615928 -19.04543584 0.0
118 1 -25.22225824 -27.65190176 0.0
119 1 36.107332 23.128068 0.0
120 1 49.50538736 -11.25974496 0.0
121 1 -49.510161208 40.75850728 0.0
122 1 7.19018544 7.16170576 0.0
123 1 -31.57929632 25.77457728 0.0
124 1 -36.32233024 33.58081088 0.0
125 1 -42.99661328 -54.476282064 0.0
126 1 -11.74284904 -53.235793576 0.0
127 1 55.1431968 56.19927936 0.0
128 1 44.63407816 -7.43366336 0.0
129 1 24.28803136 -52.153495704 0.0
130 1 -23.055118 -24.8024164 0.0
131 1 -8.54495448 -30.31405152 0.0
132 1 13.3656072 -31.02440944 0.0
133 1 5.84370352 55.1846324 0.0
134 1 13.6865872 -34.61471664 0.0
135 1 -17.6183004 -56.531312744 0.0
136 1 -22.63457584 -22.1085188 0.0
137 1 -9.9212 10.05519456 0.0
138 1 -48.374265512 41.38517696 0.0
139 1 17.41123912 -8.25817344 0.0
140 1 14.76426296 12.41772408 0.0
141 1 -24.31522712 54.40540968 0.0
142 1 15.73549008 -3.79830224 0.0
143 1 -24.57236128 -43.06314368 0.0
144 1 -39.21395152 -48.15353632 0.0
145 1 1.18715912 10.0851916 0.0
146 1 -6.88251152 27.34434456 0.0
147 1 42.44499456 52.76922872 0.0
148 1 -41.21394872 -46.2409624 0.0
149 1 -12.99315368 35.8937344 0.0
150 1 -22.35491472 12.37920648 0.0
151 1 -21.90869416 8.40197248 0.0
152 1 -51.505291184 -3.81581024 0.0
153 1 55.52393744 -28.04758256 0.0
154 1 -12.40698584 -24.89801008 0.0
155 1 10.17868432 31.69438224 0.0
156 1 -44.6068824 4.6151088 0.0
157 1 4.34128368 -8.58872448 0.0
158 1 -35.54625896 54.85629904 0.0
159 1 -25.32322104 -4.46080496 0.0
160 1 -24.11855392 50.37261696 0.0
161 1 -32.80543992 -33.05732168 0.0
162 1 35.55769752 -41.29752024 0.0
163 1 49.81119376 20.38258016 0.0
164 1 -30.48306208 20.53093128 0.0
165 1 23.05791928 45.63121712 0.0
166 1 50.9021756 20.70799552 0.0
167 1 -44.80682376 -18.9454068 0.0
168 1 -32.52449488 -38.33773448 0.0
169 1 -9.91454696 53.79262968 0.0
170 1 -53.23143992 31.18653352 0.0
171 1 5.272826 37.53178288 0.0
172 1 -42.322672 -45.80524664 0.0
173 1 39.94076696 -7.58866752 0.0
174 1 -41.7501604 36.15670456 0.0
175 1 19.897842 51.55148896 0.0
176 1 -51.20232108 -28.40229464 0.0
177 1 -25.36769136 46.58622016 0.0
178 1 -13.34132944 7.11630168 0.0
179 1 -51.552691176 -44.99520984 0.0
180 1 53.04643872 0.37677216 0.0
181 1 18.16139856 50.09143848 0.0
182 1 22.71091072 -33.45942208 0.0
183 1 -10.1738988 54.90135296 0.0
184 1 -11.49528592 -28.46357264 0.0
185 1 -53.865486304 46.34764448 0.0
186 1 -9.9311212 -32.79388464 0.0
187 1 30.73190912 -2.77186656 0.0
188 1 -44.32768816 26.2246496 0.0
189 1 14.73951832 -56.09843328 0.0
190 1 -40.12390064 -2.8689776 0.0
191 1 -14.29551544 -37.63484664 0.0
192 1 -18.03569112 44.42911784 0.0
193 1 30.80637648 24.47816824 0.0
194 1 -14.75877712 51.09814848 0.0
195 1 -54.92119536 -38.27097064 0.0
196 1 -51.768564816 13.97453544 0.0
197 1 -10.99945936 11.08011288 0.0
198 1 -27.7962844 -39.76510336 0.0
199 1 46.66243832 33.31492272 0.0
200 1 -27.02896712 -38.9237856 0.0
201 1 36.66513688 35.44973152 0.0
202 1 -25.90588728 -50.980051184 0.0
203 1 23.65459192 -36.39072816 0.0
204 1 -23.25214136 -12.44048448 0.0
205 1 -26.23678848 -46.70428244 0.0
206 1 -34.90885104 -35.66543008 0.0
207 1 -13.81766376 22.77043792 0.0
208 1 6.83955856 -11.164268 0.0
209 1 40.80461168 -32.52659584 0.0
210 1 -4.3314792 17.91441904 0.0
211 1 -3.89506312 -45.83080832 0.0
212 1 -32.59137544 -2.39696192 0.0
213 1 -27.28936944 -26.81035056 0.0
214 1 -23.16273384 -57.015222192 0.0
215 1 -25.33512648 -44.07942472 0.0
216 1 -17.61608272 46.00215328 0.0
217 1 -17.9246904 -8.69295544 0.0
218 1 53.75317832 56.74973088 0.0
219 1 -1.66722848 -13.5593624 0.0
220 1 -47.904829344 11.61165576 0.0
221 1 -55.327602728 27.4898944 0.0
222 1 37.24173368 -50.10462784 0.0
223 1 -37.23064528 -24.24367776 0.0
224 1 -26.56477168 -41.71957976 0.0
225 1 -31.5190688 -45.3037008 0.0
226 1 53.47106608 -48.624886696 0.0
227 1 -31.76441424 52.6541428 0.0
228 1 -48.610168304 -34.90663336 0.0
229 1 -15.55445736 32.03450432 0.0
230 1 -12.21778272 -54.614968768 0.0
231 1 23.35543856 13.16928416 0.0
232 1 -2.02660936 47.46687256 0.0
233 1 -43.97332624 13.71903536 0.0
234 1 -42.1954472 -23.07110864 0.0
235 1 3.58342072 38.47628112 0.0
236 1 -42.35558704 9.29779848 0.0
237 1 -31.43001144 41.72926752 0.0
238 1 -55.053123976 -45.4589384 0.0
239 1 24.32047952 -56.082711096 0.0
240 1 -15.89306208 17.81952568 0.0
241 1 -9.94290992 -57.969828384 0.0
242 1 23.1082256 -47.67451744 0.0
243 1 -41.21231464 25.22412576 0.0
244 1 -50.757174344 -32.73564136 0.0
245 1 -53.026841432 36.53079216 0.0
246 1 -9.09377192 56.92819576 0.0
247 1 -18.26913112 -21.82967472 0.0
248 1 -43.79836296 -3.50871992 0.0
249 1 39.58663848 -32.56289576 0.0
250 1 37.3276396 -45.31093744 0.0
251 1 18.43697448 39.71036168 0.0
252 1 -51.667905488 53.60926256 0.0
253 1 47.14635944 29.90121288 0.0
254 1 18.73484392 2.29401488 0.0
255 1 0.92185456 32.70599448 0.0
256 1 -27.12642832 14.57902832 0.0
257 1 25.09701768 -42.50463848 0.0
258 1 36.59919008 -43.06115944 0.0
259 1 48.10323 3.2582388 0.0
260 1 48.06657992 -0.2818788 0.0
261 1 -32.46905288 29.53517896 0.0
262 1 -45.76054288 -34.70330712 0.0
263 1 41.9719284 -3.16976504 0.0
264 1 49.9964284 -30.72140432 0.0
265 1 -15.42139656 33.88988544 0.0
266 1 -25.32380464 -3.3107628 0.0
267 1 -52.587168864 -51.254599968 0.0
268 1 26.33483328 -36.16522512 0.0
269 1 12.38901096 26.44898544 0.0
270 1 -18.33974672 -55.471039936 0.0
271 1 4.65315952 30.17923992 0.0
272 1 -24.66748808 -45.12150088 0.0
273 1 -45.13223912 33.48906896 0.0
274 1 -12.51448496 -22.61368296 0.0
275 1 -42.61785688 -25.38344856 0.0
276 1 57.84689888 -4.27872176 0.0
277 1 -33.70896944 39.5815028 0.0
278 1 -54.022813192 -31.80713376 0.0
279 1 -37.62329136 -44.52191024 0.0
280 1 -36.17596336 32.37264216 0.0
281 1 -13.27188104 53.75142752 0.0
282 1 -52.352643368 -41.98511776 0.0
283 1 -15.35078096 39.44190568 0.0
284 1 24.56384072 40.43636008 0.0
285 1 -6.883562 16.39355744 0.0
286 1 -48.442955232 -30.51189192 0.0
287 1 23.21292344 -2.02987752 0.0
288 1 44.46961968 33.6836412 0.0
289 1 -18.10899128 1.0568996 0.0
290 1 -44.9599604 -13.40575888 0.0
291 1 -14.9845136 -22.24426416 0.0
292 1 -10.12651048 4.981026 0.0
293 1 57.64007104 -13.37307728 0.0
294 1 -1.70341168 22.98788728 0.0
295 1 38.24634272 -1.75091672 0.0
296 1 -17.192856 55.89475688 0.0
297 1 -20.92871304 -34.41244088 0.0
298 1 13.38708368 25.81041032 0.0
299 1 -5.09879648 -18.70694784 0.0
300 1 10.73870688 -34.64389664 0.0
301 1 49.46045016 5.0709004 0.0
302 1 -58.215074612 40.97735728 0.0
303 1 -36.92997456 -17.4834888 0.0
304 1 -7.96940816 -36.9401292 0.0
305 1 -46.58271856 16.94809416 0.0
306 1 52.08641672 33.0685268 0.0
307 1 56.48641056 23.67151632 0.0
308 1 -27.5791852 13.37529496 0.0
309 1 -39.36370328 21.01636976 0.0
310 1 27.45114336 16.854368 0.0
311 1 27.41449328 1.33516008 0.0
312 1 14.59805368 15.85547824 0.0
313 1 45.54134272 0.78295776 0.0
314 1 54.5747704 -27.14276912 0.0
315 1 -2.7615952 8.1832392 0.0
316 1 -28.4306576 21.85091776 0.0
317 1 -7.93789376 21.21292624 0.0
318 1 -23.11686288 8.53153168 0.0
319 1 -30.81536392 -29.5996084 0.0
320 1 7.09494192 34.00450448 0.0
321 1 -53.497958368 23.19658264 0.0
322 1 -39.8528768 -33.33067992 0.0
323 1 -5.42129384 24.15298632 0.0
324 1 -21.58187816 14.88751928 0.0
325 1 -45.32867888 -39.54555304 0.0
326 1 38.13230728 -38.65848104 0.0
327 1 -23.25844424 -44.7195172 0.0
328 1 49.77512728 -20.91949216 0.0
329 1 -33.30861984 -13.38556632 0.0
330 1 18.55579544 -34.4248132 0.0
331 1 45.41248384 25.77504416 0.0
332 1 -12.53841256 -1.01056176 0.0
333 1 -18.4458452 -18.71301728 0.0
334 1 -10.47877144 23.80305976 0.0
335 1 -27.30711088 -57.3262366384 0.0
336 1 -19.30863944 -30.77649616 0.0
337 1 -55.963306536 -14.06452656 0.0
338 1 -57.4509916432 51.65233504 0.0
339 1 -47.258690768 -18.44105968 0.0
340 1 -19.89515744 37.58010496 0.0
341 1 27.38461296 8.97366704 0.0
342 1 -21.8622396 -23.18199264 0.0
343 1 -43.41703872 -16.04584856 0.0
344 1 -12.20295928 -29.44997336 0.0
345 1 14.11740072 53.46102816 0.0
346 1 -0.76124784 -23.702914 0.0
347 1 57.38118608 -26.3577104 0.0
348 1 5.54023152 29.46397976 0.0
349 1 -36.37368704 -14.31955976 0.0
350 1 -16.23948704 -24.84000024 0.0
351 1 -51.661637624 -1.07895968 0.0
352 1 -44.77997816 14.46475944 0.0
353 1 -14.1849816 -41.05941144 0.0
354 1 15.33198904 -5.47113328 0.0
355 1 54.82326728 57.2418224 0.0
356 1 -24.90011104 -2.02497528 0.0
357 1 -27.91218736 -41.75167776 0.0
358 1 -1.22719408 13.35230112 0.0
359 1 -45.99433304 -12.9016452 0.0
360 1 -26.19336864 -49.911491256 0.0
361 1 55.26365184 -14.10817984 0.0
362 1 51.73462264 -8.41691264 0.0
363 1 -33.47377864 28.86870776 0.0
364 1 -52.299057216 -30.425986 0.0
365 1 -21.9649532 21.43457752 0.0
366 1 -27.19996192 18.22687848 0.0
367 1 21.80633072 -38.29910016 0.0
368 1 -31.61723032 -27.16622984 0.0
369 1 52.0460316 -21.27898976 0.0
370 1 -49.431982152 12.50876568 0.0
371 1 -34.34917864 -24.07478392 0.0
372 1 -18.24952216 -37.86116672 0.0
373 1 -56.050566408 -52.208750952 0.0
374 1 54.49283296 48.76468224 0.0
375 1 -48.148412312 6.5795064 0.0
376 1 -32.18600688 -29.60637816 0.0
377 1 -32.19055896 -44.33329072 0.0
378 1 7.96987504 -31.47973416 0.0
379 1 47.59689864 -16.91296144 0.0
380 1 17.0417036 28.86649008 0.0
381 1 -19.67443992 -32.80275536 0.0
382 1 -35.98045736 56.44882672 0.0
383 1 -5.64189464 48.32943336 0.0
384 1 -19.04742008 56.71401456 0.0
385 1 -41.24347888 -22.22057 0.0
386 1 -2.98196256 -15.96682912 0.0
387 1 55.00418328 -16.7913392 0.0
388 1 -25.35742 -33.72671088 0.0
389 1 47.49371816 50.01673768 0.0
390 1 -46.47767056 18.12299768 0.0
391 1 -39.90610112 56.91115464 0.0
392 1 57.68547512 47.662612 0.0
393 1 43.0796012 -44.99194168 0.0
394 1 -22.37919248 39.99492504 0.0
395 1 -28.41209912 -50.788361928 0.0
396 1 -40.9033568 -9.06039 0.0
397 1 -57.2869218408 28.240404 0.0
398 1 -56.599874072 -55.827549504 0.0
399 1 -5.6994376 -6.6845544 0.0
400 1 -24.03626632 1.93918608 0.0
401 1 -34.4604128 5.83868456 0.0
402 1 32.43321984 -9.10369312 0.0
403 1 -43.41377056 -49.742177224 0.0
404 1 14.20178928 -3.19859488 0.0
405 1 -43.50469544 -30.45680008 0.0
406 1 48.3325848 5.39106336 0.0
407 1 -54.112185696 -5.8085708 0.0
408 1 -37.23111216 -55.8044156 0.0
409 1 -21.8359776 45.2389212 0.0
410 1 -47.59905796 4.98872952 0.0
411 1 -29.46036144 -23.95526264 0.0
412 1 -39.5225592 -41.52407376 0.0
413 1 -35.55723064 51.55394008 0.0
414 1 -39.65573672 3.78102768 0.0
415 1 43.65141248 57.96280184 0.0
416 1 6.21557344 26.14247872 0.0
417 1 -43.04306784 -55.823534336 0.0
418 1 -51.09114528 -33.84926688 0.0
419 1 32.5047692 -45.69366232 0.0
420 1 -14.04445072 16.4796968 0.0
421 1 -24.06112768 -42.02491928 0.0
422 1 -15.37412496 54.20932008 0.0
423 1 34.21086544 1.5068552 0.0
424 1 -29.37889088 22.70332392 0.0
425 1 -16.35328904 -36.24552848 0.0
426 1 -7.2553152 -32.77742712 0.0
427 1 38.32291104 9.00097952 0.0
428 1 -33.29367968 -27.02196392 0.0
429 1 9.07801472 23.30536568 0.0
430 1 -14.18241376 -19.71645912 0.0
431 1 -43.8873036 -35.15501352 0.0
432 1 -3.19240872 49.25478952 0.0
433 1 8.02706784 -15.02746656 0.0
434 1 -33.6322844 3.29080368 0.0
435 1 -35.7239068 -47.326294992 0.0
436 1 -43.29296536 -32.8806076 0.0
437 1 30.1937132 -30.23304784 0.0
438 1 -25.14358896 1.68858824 0.0
439 1 -56.239325992 6.69249136 0.0
440 1 -47.042513656 7.42736048 0.0
441 1 -19.08266952 -54.584434816 0.0
442 1 24.84478576 -6.48939856 0.0
443 1 7.10451296 36.24704584 0.0
444 1 46.1726812 -1.83098664 0.0
445 1 -35.3293932 -32.09239744 0.0
446 1 -6.75855488 52.98632792 0.0
447 1 35.24080272 -36.56825928 0.0
448 1 -8.39123424 -39.89512944 0.0
449 1 41.3112932 -34.44278808 0.0
450 1 -39.24628296 5.35814832 0.0
451 1 50.04451704 -3.44020528 0.0
452 1 40.88386456 10.77757464 0.0
453 1 -14.46931152 58.21888552 0.0
454 1 45.0988572 9.0119512 0.0
455 1 -25.83118648 -15.10391816 0.0
456 1 -3.68181568 56.56157824 0.0
457 1 -39.17496704 -38.25007776 0.0
458 1 -18.15276128 39.56119352 0.0
459 1 -44.94817168 -33.88276552 0.0
460 1 -40.95284608 17.31984736 0.0
461 1 13.25437304 -1.72932352 0.0
462 1 -25.57288512 -19.73723528 0.0
463 1 -39.74689504 -45.08613472 0.0
464 1 -35.75297008 -13.33444296 0.0
465 1 -5.35873192 18.45296512 0.0
466 1 55.70391968 -36.58903544 0.0
467 1 -29.00351936 49.93713464 0.0
468 1 -35.05031568 11.42852208 0.0
469 1 -4.1779924 -34.83076536 0.0
470 1 7.45887488 -8.09593264 0.0
471 1 -23.93145176 18.58380824 0.0
472 1 -43.04948744 -39.53002928 0.0
473 1 -26.3489564 24.8397668 0.0
474 1 -37.27651624 0.5789312 0.0
475 1 -9.74191808 16.32842768 0.0
476 1 -1.75686944 29.74620872 0.0
477 1 -2.27230496 -49.628188472 0.0
478 1 52.69067616 -49.464512016 0.0
479 1 -28.09065224 -20.05214584 0.0
480 1 -27.41134184 -7.37915512 0.0
481 1 -56.45431256 -40.04348056 0.0
482 1 -26.01432016 32.8823584 0.0
483 1 20.34242848 -43.83162816 0.0
484 1 -0.61546456 -34.78302688 0.0
485 1 -21.04916808 -28.69059304 0.0
486 1 -34.0518928 -5.89214232 0.0
487 1 -41.5272252 -34.27447784 0.0
488 1 -24.37487104 12.86231056 0.0
489 1 -49.713405744 -39.36825536 0.0
490 1 12.99128616 28.1581164 0.0
491 1 -13.90462016 -2.72062648 0.0
492 1 54.92352976 15.40283808 0.0
493 1 -5.0989132 51.20074536 0.0
494 1 -21.25751328 11.9976488 0.0
495 1 -44.98377128 23.4502152 0.0
496 1 -17.35439648 33.68457496 0.0
497 1 -12.78737632 4.67218488 0.0
498 1 5.2564852 16.60178592 0.0
499 1 -2.54286192 57.0679096 0.0
500 1 39.34817952 -35.67791912 0.0
501 1 -30.72268824 -15.34074304 0.0
502 1 38.3080876 -44.29185512 0.0
503 1 3.54910504 6.85753344 0.0
504 1 -19.66276792 -55.697745192 0.0
505 1 -47.020838752 -57.7483626888 0.0
506 1 41.95768856 10.43698568 0.0
507 1 15.33152216 -51.170935072 0.0
508 1 -37.30663 -25.3650068 0.0
509 1 26.14376264 1.83647248 0.0
510 1 -13.70724664 -47.846469344 0.0
511 1 42.84569432 -46.15657384 0.0
512 1 -49.510371304 -15.39209984 0.0
513 1 45.91974896 -45.35435728 0.0
514 1 -18.8660372 8.98417184 0.0
515 1 -33.04950144 -24.52800768 0.0
516 1 -25.5856076 -34.97794928 0.0
517 1 12.65268144 37.30464576 0.0
518 1 -15.21596936 -6.31245104 0.0
519 1 28.23363424 -32.43847224 0.0
520 1 -52.196110176 -47.361042536 0.0
521 1 -5.43203208 4.02368856 0.0
522 1 -26.43731344 -34.1738652 0.0
523 1 -27.7110788 20.90747 0.0
524 1 -51.44498196 -25.88546128 0.0
525 1 -38.20082192 -7.07953488 0.0
526 1 -6.05006448 -21.26953544 0.0
527 1 49.20319928 45.69074432 0.0
528 1 -28.63795232 1.74391352 0.0
529 1 -42.53253456 45.0615068 0.0
530 1 -40.29326136 -26.14422952 0.0
531 1 -15.26557536 -14.38714064 0.0
532 1 -46.48012168 -33.72320928 0.0
533 1 -41.81692424 -6.96678336 0.0
534 1 -20.533966 -17.26382176 0.0
535 1 -31.48545344 30.88376184 0.0
536 1 -58.1560761536 3.9037004 0.0
537 1 27.27384568 14.00301512 0.0
538 1 44.17140008 -20.48832848 0.0
539 1 -35.66216192 -55.817885088 0.0
540 1 5.27154208 4.05987176 0.0
541 1 -31.3935948 1.30539648 0.0
542 1 -49.985876912 19.20242424 0.0
543 1 12.52860808 -8.79928736 0.0
544 1 54.46517032 29.28936664 0.0
545 1 -5.6825132 -49.061407824 0.0
546 1 29.59412256 -2.92640384 0.0
547 1 -56.64404092 52.83202408 0.0
548 1 -39.45859664 -28.18017648 0.0
549 1 -37.9801044 1.56848336 0.0
550 1 23.91779552 -28.92741792 0.0
551 1 -7.74658968 28.1802932 0.0
552 1 -28.57795824 51.44165544 0.0
553 1 13.57010064 -10.82414592 0.0
554 1 -32.23526272 -43.23822368 0.0
555 1 -16.45705312 -29.97264552 0.0
556 1 -49.874502688 15.55200624 0.0
557 1 31.29076448 57.73181296 0.0
558 1 -54.23003788 -26.00509928 0.0
559 1 -44.84919312 -28.60655464 0.0
560 1 29.30629104 -11.844162 0.0
561 1 -13.34436416 31.17346088 0.0
562 1 17.94990192 -47.542005224 0.0
563 1 -1.91210704 -12.41737392 0.0
564 1 -29.8324648 -40.34882008 0.0
565 1 19.97861224 -51.1122716 0.0
566 1 -42.97910528 42.53230112 0.0
567 1 -31.99563656 -52.657212536 0.0
568 1 -43.24324264 -31.66741992 0.0
569 1 -51.088087216 5.37238816 0.0
570 1 37.27885064 -0.18593496 0.0
571 1 -51.39753528 -11.31355288 0.0
572 1 -21.62132952 48.70247048 0.0
573 1 -42.72558944 -35.13295344 0.0
574 1 -1.57303544 -7.0983268 0.0
575 1 39.15909312 -14.724228 0.0
576 1 -10.35294728 33.95699944 0.0
577 1 34.12040744 -6.24370296 0.0
578 1 -51.12090888 -10.20973184 0.0
579 1 56.5076536 10.3285528 0.0
580 1 -34.17993464 -32.34649688 0.0
581 1 -45.61756088 50.78183728 0.0
582 1 42.66454488 -31.9059956 0.0
583 1 -55.223593536 -24.05097304 0.0
584 1 -50.9036346 -20.48681112 0.0
585 1 -32.19907952 -30.96091376 0.0
586 1 7.93649312 -22.45027496 0.0
587 1 -20.14085304 -46.21481712 0.0
588 1 -38.0904048 -1.12821552 0.0
589 1 56.53344872 -24.56675872 0.0
590 1 -20.41141 -38.86169056 0.0
591 1 -7.53345896 32.29980888 0.0
592 1 51.528962 -54.562409752 0.0
593 1 -56.958858104 -49.717899464 0.0
594 1 -52.548814672 30.30027856 0.0
595 1 47.17950792 2.5369092 0.0
596 1 -18.25209 15.04684208 0.0
597 1 19.50006024 0.83524832 0.0
598 1 42.76527424 55.3328668 0.0
599 1 -40.35990848 48.05759248 0.0
600 1 3.5868056 -23.42196896 0.0
601 1 -39.78249464 9.51664848 0.0
602 1 2.04178296 -46.4475568 0.0
603 1 -26.39646144 -27.69777272 0.0
604 1 25.83573856 13.92539632 0.0
605 1 -55.014384608 -5.1572732 0.0
606 1 11.29814584 -5.33748888 0.0
607 1 -36.8992772 39.11719064 0.0
608 1 13.606634 12.13059288 0.0
609 1 -45.63495216 -32.96557976 0.0
610 1 27.329988 49.95814424 0.0
611 1 47.40559456 36.63035432 0.0
612 1 -4.11776488 14.73893472 0.0
613 1 -40.09635472 25.614204 0.0
614 1 -41.62491984 56.679232 0.0
615 1 37.25258864 -2.59912096 0.0
616 1 -49.875471464 4.98756232 0.0
617 1 -23.86410432 -48.881122112 0.0
618 1 -5.6031436 -57.416954924 0.0
619 1 -38.32898048 28.7767324 0.0
620 1 53.0591612 20.25628912 0.0
621 1 -35.59061256 -11.26861568 0.0
622 1 -41.43921832 31.37305208 0.0
623 1 40.5012564 -41.07481848 0.0
624 1 38.23735528 17.2798124 0.0
625 1 45.4192536 13.12959936 0.0
626 1 -39.6124336 41.04073624 0.0
627 1 -41.81120496 -28.97317216 0.0
628 1 43.4554396 15.0878108 0.0
629 1 -45.28934424 9.82945808 0.0
630 1 49.78096328 -9.15680072 0.0
631 1 11.41860088 25.75333424 0.0
632 1 41.62340248 37.58348984 0.0
633 1 -57.9629979296 -6.08204576 0.0
634 1 56.5064864 6.72925816 0.0
635 1 -52.847057616 6.63599888 0.0
636 1 -56.709789296 -7.70328656 0.0
637 1 46.50918496 -26.22254864 0.0
638 1 29.76161576 26.372884 0.0
639 1 -34.62230344 38.96860608 0.0
640 1 42.20548512 25.17148504 0.0
641 1 -41.46664752 21.62039576 0.0
642 1 30.29187472 -46.31472944 0.0
643 1 -37.89023 -2.29576568 0.0
644 1 -26.94854704 54.37657984 0.0
645 1 -51.307264032 12.94798304 0.0
646 1 24.22161768 4.76007504 0.0
647 1 24.23247264 19.80376568 0.0
648 1 49.12231232 22.27799624 0.0
649 1 -55.239304048 10.63179136 0.0
650 1 48.67795928 21.2237812 0.0
651 1 37.51859352 -48.989870136 0.0
652 1 15.35813432 19.06749592 0.0
653 1 -27.42955016 -21.00177976 0.0
654 1 -2.33183216 22.10466704 0.0
655 1 11.43284072 11.476494 0.0
656 1 -31.3731688 15.90415048 0.0
657 1 -25.74831528 -7.12248784 0.0
658 1 -17.25214976 -25.78449848 0.0
659 1 -40.18762976 16.39577512 0.0
660 1 -19.84146624 -53.526881584 0.0
661 1 -43.26857088 30.12438152 0.0
662 1 55.5056124 -1.11047408 0.0
663 1 46.21598432 -50.33071448 0.0
664 1 -48.911504328 -9.86073904 0.0
665 1 -35.83339016 35.65889376 0.0
666 1 48.29686848 -11.11828032 0.0
667 1 -3.77215696 -54.065556056 0.0
668 1 3.6078152 18.72492272 0.0
669 1 -36.85282264 13.92901464 0.0
670 1 -50.558365168 23.82687064 0.0
671 1 -45.98779672 34.88048808 0.0
672 1 -40.76084168 41.06431368 0.0
673 1 -47.116490792 -51.37565028 0.0
674 1 -29.49899576 -12.50211264 0.0
675 1 -23.67420088 -10.26353976 0.0
676 1 13.95025768 35.96423328 0.0
677 1 -27.3043096 57.32340968 0.0
678 1 -39.5167232 -0.87119808 0.0
679 1 -23.3632588 -20.25092 0.0
680 1 -7.96614 30.379298 0.0
681 1 -15.29452192 27.24221456 0.0
682 1 56.73689168 -12.64439432 0.0
683 1 -45.30265032 31.66601928 0.0
684 1 -25.11534272 7.36584904 0.0
685 1 -29.9742796 -57.4562498792 0.0
686 1 41.51987184 -15.64258096 0.0
687 1 -18.08669776 32.78828208 0.0
688 1 4.86769088 -37.13703584 0.0
689 1 -46.7589074 22.53139536 0.0
690 1 51.5447192 -15.132748 0.0
691 1 -24.10116264 -13.60651728 0.0
692 1 -38.93872576 -56.71401456 0.0
693 1 -16.09708864 7.45747424 0.0
694 1 41.21161432 3.83997128 0.0
695 1 -30.43520688 12.33415256 0.0
696 1 -38.69419736 -40.6745856 0.0
697 1 -39.46151464 28.97550656 0.0
698 1 -52.485564104 26.93103904 0.0
699 1 50.43984768 28.43555984 0.0
700 1 -38.90814512 18.3518856 0.0
701 1 -58.1373402592 14.16595624 0.0
702 1 -17.56134104 -35.04774784 0.0
703 1 51.37150672 -4.04119656 0.0
704 1 34.3279356 35.28573992 0.0
705 1 -39.38506304 49.26120912 0.0
706 1 -32.20164736 -39.535982 0.0
707 1 24.2935172 -50.705700824 0.0
708 1 -43.89792512 57.32095856 0.0
709 1 -44.81616136 -12.08915728 0.0
710 1 -35.79814072 38.95401608 0.0
711 1 -33.2687016 -15.55434064 0.0
712 1 43.71700912 24.884704 0.0
713 1 -53.956061024 -3.4502432 0.0
714 1 53.36508432 53.3188632 0.0
715 1 -25.80422416 29.4449544 0.0
716 1 -1.6159884 8.088696 0.0
717 1 1.81896448 20.83813832 0.0
718 1 -15.062716 -23.414032 0.0
719 1 2.4417824 6.74513208 0.0
720 1 -54.197928208 30.62487688 0.0
721 1 -45.62024544 -7.52272072 0.0
722 1 -34.23210848 34.13954952 0.0
723 1 -30.57667152 19.34412232 0.0
724 1 -48.787886176 14.85355376 0.0
725 1 -8.81983008 10.34711128 0.0
726 1 -49.495898024 -1.90031832 0.0
727 1 -4.65024152 21.91429672 0.0
728 1 -51.926883824 40.25182576 0.0
729 1 7.85093736 -5.81417336 0.0
730 1 -45.7898396 -6.21802456 0.0
731 1 31.33978688 -56.817288416 0.0
732 1 29.01880968 3.39841952 0.0
733 1 -56.845161152 -10.571914 0.0
734 1 -57.6128379296 -54.06581284 0.0
735 1 -48.577264936 13.76572336 0.0
736 1 -27.53588208 27.97755056 0.0
737 1 -38.0279596 8.84025608 0.0
738 1 35.95944776 44.09436488 0.0
739 1 26.55718488 10.8864744 0.0
740 1 42.09985352 5.83553312 0.0
741 1 -21.5646036 58.17604928 0.0
742 1 -23.44192808 -19.15223464 0.0
743 1 55.2838444 39.70744368 0.0
744 1 39.88310728 -22.53664776 0.0
745 1 -47.274623048 -37.4863788 0.0
746 1 -49.7192184 -16.974006 0.0
747 1 44.37274208 -57.4981243464 0.0
748 1 21.51511432 19.58316488 0.0
749 1 -12.8065184 -3.42129664 0.0
750 1 -34.92659248 20.81502776 0.0
751 1 -48.024759144 22.7697376 0.0
752 1 -5.36421776 -29.93191024 0.0
753 1 -29.49409352 18.65103896 0.0
754 1 -29.188754 -13.63954904 0.0
755 1 57.21334272 11.24807296 0.0
756 1 10.04328912 4.525818 0.0
757 1 -34.66128792 40.94724352 0.0
758 1 3.74449432 26.25219552 0.0
759 1 -17.13519632 -10.63342544 0.0
760 1 -18.08004472 43.26670336 0.0
761 1 5.611314 23.41963456 0.0
762 1 -51.307053936 -24.0221432 0.0
763 1 10.5940908 -36.96125552 0.0
764 1 -50.297729408 6.26926464 0.0
765 1 -42.61832376 18.10362216 0.0
766 1 40.11561352 -46.02596416 0.0
767 1 -0.56060616 41.82404416 0.0
768 1 -31.13342592 17.17674864 0.0
769 1 -20.75608416 -11.83727552 0.0
770 1 -9.19391768 -49.219750176 0.0
771 1 -40.04067928 -22.95427192 0.0
772 1 -50.169360752 47.47387576 0.0
773 1 45.49675568 -53.7384716 0.0
774 1 -37.3673244 54.16496648 0.0
775 1 -19.74925744 -48.470711248 0.0
776 1 -20.63446192 5.65251616 0.0
777 1 -18.93875376 55.44830288 0.0
778 1 -31.55805328 13.2611428 0.0
779 1 -25.01321272 2.807116 0.0
780 1 -24.3985652 -36.075234 0.0
781 1 -27.116974 48.4113708 0.0
782 1 56.4271168 52.18014288 0.0
783 1 44.58143744 19.1794304 0.0
784 1 24.54656616 16.03219232 0.0
785 1 54.2876392 39.00478928 0.0
786 1 -43.50749672 51.61906984 0.0
787 1 -32.5076872 -27.85487784 0.0
788 1 2.47469744 31.26076744 0.0
789 1 -56.6678518 33.7951088 0.0
790 1 4.12873656 -52.958735312 0.0
791 1 -12.18661848 -19.8867536 0.0
792 1 55.24427632 20.19769568 0.0
793 1 -43.72307856 29.12362424 0.0
794 1 -53.122388424 -56.621583992 0.0
795 1 2.75237432 -24.60317536 0.0
796 1 -17.7250992 2.1669068 0.0
797 1 -21.51628152 10.65431832 0.0
798 1 -16.70344904 49.53410048 0.0
799 1 -42.2917412 -51.985990832 0.0
800 1 29.46526368 1.83122008 0.0
801 1 -23.33022704 4.99421536 0.0
802 1 -36.39609728 -58.057555136 0.0
803 1 47.7840008 -22.0536604 0.0
804 1 33.27115272 -40.9261172 0.0
805 1 27.39044896 -11.19531552 0.0
806 1 -23.46468848 14.60797488 0.0
807 1 -35.21477416 7.14816624 0.0
808 1 -4.68117232 19.64771104 0.0
809 1 -46.3489284 -41.13469584 0.0
810 1 -50.885321232 35.06455552 0.0
811 1 55.56093768 10.94880288 0.0
812 1 11.43377448 -14.22980208 0.0
813 1 15.4636492 -58.3804619498 0.0
814 1 -36.97958056 -19.83492992 0.0
815 1 -54.72277136 -29.93506168 0.0
816 1 -2.00793416 38.20455696 0.0
817 1 21.57884344 -2.52185232 0.0
818 1 -10.25221792 -51.320430048 0.0
819 1 54.90345392 -25.21957368 0.0
820 1 -29.25983648 -41.72611608 0.0
821 1 -38.52250224 50.09587384 0.0
822 1 -48.773482928 17.1916888 0.0
823 1 33.95256408 21.4397132 0.0
824 1 -16.72982776 0.39346312 0.0
825 1 -40.79410688 3.51163792 0.0
826 1 -14.24847728 39.11835784 0.0
827 1 -15.84730784 4.97939192 0.0
828 1 -4.97273888 -27.68341616 0.0
829 1 -47.432860352 44.33352416 0.0
830 1 24.57749696 13.659158 0.0
831 1 49.34151248 6.21032104 0.0
832 1 -16.2439224 -3.13521592 0.0
833 1 -32.81862928 4.04096312 0.0
834 1 -2.51438224 34.39259848 0.0
835 1 -50.877769448 31.81565432 0.0
836 1 -34.2905852 9.2127096 0.0
837 1 -10.45671136 -26.31872592 0.0
838 1 -58.137438304 -26.9016256 0.0
839 1 -13.21200368 -20.37592712 0.0
840 1 -36.01173832 -0.82217568 0.0
841 1 -45.69261184 48.34670792 0.0
842 1 21.64654104 16.3431344 0.0
843 1 40.85631864 -30.60526792 0.0
844 1 -46.61049792 55.43593056 0.0
845 1 30.3547868 -36.28486312 0.0
846 1 50.8905036 41.93142656 0.0
847 1 -30.78151512 -31.88136768 0.0
848 1 -52.859348232 0.97239432 0.0
849 1 -47.258398968 -1.14187176 0.0
850 1 -13.91022272 -6.19678152 0.0
851 1 8.29575728 1.62462568 0.0
852 1 56.74377816 -39.76136832 0.0
853 1 -44.59707792 -16.36904624 0.0
854 1 -33.9094944 -50.025701776 0.0
855 1 -27.30150832 -42.74998392 0.0
856 1 -15.32848744 -29.88463864 0.0
857 1 -35.75588808 13.47205584 0.0
858 1 57.58299496 26.90524392 0.0
859 1 -47.41773344 -17.35054472 0.0
860 1 28.56185088 -3.30679432 0.0
861 1 13.84719392 52.18236056 0.0
862 1 -24.27005648 48.51980368 0.0
863 1 2.32342832 10.6092644 0.0
864 1 -22.71557952 57.4723444 0.0
865 1 35.09992168 -22.81899344 0.0