ITEM: TIMESTEP
0
ITEM: NUMBER OF ATOMS
9945
ITEM: BOX BOUNDS pp pp pp
-5.8359999999999999e+01 5.8359999999999999e+01
-5.8359999999999999e+01 5.8359999999999999e+01
-5.0000000000000000e-01 5.0000000000000000e-01
ITEM: ATOMS id type xs ys zs c_002[1] c_002[2]
1 1 0.877836 0.105617 0.5 0.917203 -0.164207
2 1 0.861011 0.0214808 0.5 0.342447 -0.824178
3 1 0.0838323 0.124632 0.5 0.451307 -0.0873042
4 1 0.981792 0.0174891 0.5 0.61365 0.770944
5 1 0.0443049 0.233294 0.5 -0.439265 0.144458
6 1 0.905429 0.0401724 0.5 0.349172 -0.387091
7 1 0.881079 0.0523188 0.5 -0.0448045 0.422253
8 1 0.0582396 0.279146 0.5 -0.151134 0.618248
9 1 0.0929808 0.181971 0.5 -0.346547 0.55419
10 1 0.836321 0.0348671 0.5 -0.314188 0.0682652
11 1 0.983531 0.999466 0.5 -0.117945 0.564953
12 1 0.959266 0.0617505 0.5 0.677074 0.0628756
13 1 0.919839 0.0664781 0.5 0.20458 -0.100215
14 1 0.122749 0.111776 0.5 -0.621383 0.446279
15 1 0.892337 0.0952759 0.5 0.931145 -0.271721
16 1 0.0158201 0.251454 0.5 0.542974 -0.785779
17 1 0.0546968 0.00705914 0.5 -0.0249775 0.177071
18 1 0.853897 0.0139892 0.5 -0.0817921 -0.656164
19 1 0.0329596 0.0985237 0.5 0.65993 -0.102287
20 1 0.942143 0.0440677 0.5 0.235367 -0.312783
21 1 0.0635132 0.00254385 0.5 -0.338823 0.429886
22 1 0.941414 0.948022 0.5 -0.670709 -0.269456
23 1 0.0241908 0.0613202 0.5 0.459678 0.28365
24 1 0.972961 0.0617672 0.5 0.545881 0.12606
25 1 0.912165 0.00360484 0.5 0.0564272 -0.327075
26 1 0.974737 0.139725 0.5 0.175164 -0.959701
27 1 0.932805 0.0448987 0.5 -0.280581 0.180396
28 1 0.911185 0.17916 0.5 -0.677552 0.632669
29 1 0.949616 0.0620884 0.5 0.863633 -0.217961
30 1 0.0992231 0.989253 0.5 0.182674 0.859716
31 1 0.916737 0.0291903 0.5 0.523663 0.0979828
32 1 0.999465 0.132362 0.5 -0.388212 -0.195935
33 1 0.0834905 0.30583 0.5 0.870257 0.303556
34 1 0.856609 0.0328906 0.5 0.336595 -0.343204
35 1 0.074885 0.00433464 0.5 -0.212032 -0.149871
36 1 0.0961834 0.345634 0.5 0.772961 0.319001
37 1 0.0630531 0.142347 0.5 0.622508 -0.480906
38 1 0.026821 0.0881454 0.5 0.688024 -0.387371
39 1 0.950818 0.153005 0.5 0.539633 -0.679004
40 1 0.915944 0.0566186 0.5 0.205365 0.350208
41 1 0.996176 0.964701 0.5 -0.33617 0.786226
42 1 0.989914 0.151568 0.5 0.0502398 -0.525219
43 1 0.926796 0.0285163 0.5 -0.0525229 -0.408901
44 1 0.114109 0.881546 0.5 -0.764964 -0.21994
45 1 0.88083 0.0199992 0.5 0.864006 -0.122225
46 1 0.971755 0.148945 0.5 -0.135166 -0.890286
47 1 0.818785 0.264403 0.5 0.659269 -0.393648
48 1 0.00777494 0.187911 0.5 0.0962562 -0.644091
49 1 0.0971425 0.139984 0.5 -0.49933 0.235515
50 1 0.0486968 0.17698 0.5 -0.411586 -0.00488064
51 1 0.938726 0.927832 0.5 0.338542 0.733039
52 1 0.127794 0.0967037 0.5 -0.478234 0.702969
53 1 0.949121 0.862695 0.5 0.703428 0.651648
54 1 0.949027 0.963869 0.5 -0.601996 0.0814678
55 1 0.173806 0.242679 0.5 0.681516 -0.296028
56 1 0.00402457 0.291074 0.5 0.17863 -0.571384
57 1 0.0386368 0.241429 0.5 -0.232366 0.259367
58 1 0.110204 0.22603 0.5 -0.277499 0.741186
59 1 0.858575 0.0836734 0.5 -0.181311 -0.589028
60 1 0.92832 0.176259 0.5 0.189651 0.238774
61 1 0.0559222 0.0961205 0.5 0.416126 -0.444297
62 1 0.934363 0.919354 0.5 0.353117 0.601916
63 1 0.907383 0.0681515 0.5 0.422994 0.0871786
64 1 0.803737 0.0256712 0.5 0.216545 0.910911
65 1 0.985008 0.072714 0.5 -0.0658177 0.178351
66 1 0.172387 0.332531 0.5 0.754061 0.138575
67 1 0.945921 0.998506 0.5 -0.106854 0.0538736
68 1 0.979474 0.279311 0.5 0.256209 -0.731225
69 1 0.0789443 0.989165 0.5 -0.0258908 0.161989
70 1 0.834992 0.199557 0.5 0.854437 -0.358928
71 1 0.973236 0.205015 0.5 0.121196 -0.841098
72 1 0.00653848 0.224241 0.5 0.244149 -0.862548
73 1 0.982279 0.201931 0.5 0.225106 -0.808671
74 1 0.93177 0.963227 0.5 -0.716957 0.176025
75 1 0.906155 0.0572315 0.5 0.432321 0.25331
76 1 0.0801546 0.253759 0.5 0.446399 0.3692
77 1 0.0377717 0.953726 0.5 -0.0929596 0.181199
78 1 0.128962 0.0476411 0.5 -0.126788 0.872391
79 1 0.762488 0.088634 0.5 0.602686 -0.159188
80 1 0.173434 0.0824774 0.5 -0.264085 0.169038
81 1 0.016863 0.0898084 0.5 0.300779 -0.77142
82 1 0.99271 0.266436 0.5 0.188707 -0.7708
83 1 0.0740574 0.15136 0.5 -0.532876 0.465233
84 1 0.0828808 0.141814 0.5 0.263483 0.0550747
85 1 0.836929 0.138429 0.5 0.50447 -0.29583
86 1 0.912682 0.877062 0.5 -0.00915834 0.311387
87 1 0.171294 0.0290614 0.5 -0.6922 0.642341
88 1 0.95889 0.124205 0.5 0.321685 -0.565443
89 1 0.0187675 0.194603 0.5 -0.238784 0.472622
90 1 0.873027 0.173921 0.5 0.168225 0.311924
91 1 0.882769 0.0959417 0.5 0.810235 -0.515975
92 1 0.961287 0.152592 0.5 0.160943 -0.718241
93 1 0.921756 0.972132 0.5 0.217529 0.0114181
94 1 0.00711714 0.160002 0.5 0.287038 -0.0893853
95 1 0.900998 0.188625 0.5 0.53892 -0.291321
96 1 0.837721 0.117951 0.5 0.202537 0.229294
97 1 0.974188 0.077289 0.5 -0.206199 0.0101966
98 1 0.914317 0.966214 0.5 -0.0409333 0.55059
99 1 0.0756363 0.171226 0.5 -0.840852 -0.0452953
100 1 0.0306844 0.0787301 0.5 0.573142 -0.117287
101 1 0.839145 0.154479 0.5 0.645777 -0.446286
102 1 0.0459767 0.0653164 0.5 0.245468 0.658109
103 1 0.968466 0.00515823 0.5 0.312828 0.337511
104 1 0.96841 0.225821 0.5 -0.0806653 -0.950337
105 1 0.858088 0.966276 0.5 0.466218 0.248183
106 1 0.0301532 0.156519 0.5 -0.155276 -0.520021
107 1 0.88799 0.886889 0.5 -0.643509 0.454521
108 1 0.0942056 0.238209 0.5 -0.052363 0.742033
109 1 0.97779 0.00848187 0.5 0.190411 0.720116
110 1 0.943936 0.144548 0.5 0.131385 -0.838629
111 1 0.96005 0.976982 0.5 -0.318082 -0.0345011
112 1 0.934884 0.137192 0.5 -0.176067 -0.867565
113 1 0.95202 0.0227097 0.5 0.256757 0.539656
114 1 0.037814 0.206822 0.5 0.0175096 -0.489665
115 1 0.00347554 0.148795 0.5 0.254225 -0.450133
116 1 0.973865 0.0968481 0.5 0.627838 -0.662035
117 1 0.938903 0.098563 0.5 0.271079 -0.542624
118 1 0.919207 0.01142 0.5 0.232993 -0.532808
119 1 0.0868766 0.0290662 0.5 0.611895 -0.693383
120 1 0.132574 0.185468 0.5 -0.872055 0.0980447
121 1 0.835313 0.0636546 0.5 -0.0248805 -0.281019
122 1 0.177389 0.341042 0.5 0.889742 0.218694
123 1 0.938324 0.0157857 0.5 -0.575418 -0.611721
124 1 0.00738027 0.0934705 0.5 -0.319767 -0.237411
125 1 0.924073 0.0412085 0.5 -0.62905 0.273615
126 1 0.128462 0.895703 0.5 -0.33838 -0.649796
127 1 0.0770369 0.979007 0.5 -0.664491 -0.186462
128 1 0.974624 0.0269229 0.5 0.414523 0.778367
129 1 0.966743 0.0540161 0.5 0.57119 0.21407
130 1 0.957075 0.172461 0.5 -0.328201 -0.422286
131 1 0.0870402 0.246925 0.5 0.0815972 0.911479
132 1 0.0757108 0.0314607 0.5 0.621949 -0.424519
133 1 0.179273 0.12608 0.5 0.0869251 0.881044
134 1 0.921651 0.959937 0.5 -0.380363 0.665708
135 1 0.0870878 0.267496 0.5 -0.723973 0.021859
136 1 0.863674 0.997297 0.5 -0.398891 0.351657
137 1 0.0112787 0.860898 0.5 0.326065 -0.74209
138 1 0.0216279 0.271397 0.5 0.0330294 -0.51305
139 1 0.965379 0.854764 0.5 0.472195 -0.136911
140 1 0.83264 0.147555 0.5 0.687124 -0.202434
141 1 0.199778 0.438185 0.5 0.340066 -0.0146148
142 1 0.0468343 0.133585 0.5 0.900757 0.338372
143 1 0.0170465 0.109504 0.5 0.155953 -0.181675
144 1 0.929059 0.0088826 0.5 -0.103095 -0.908906
145 1 0.949612 0.932325 0.5 -0.168126 0.143961
146 1 0.00974371 0.214378 0.5 0.228205 -0.773713
147 1 0.0566561 0.0864922 0.5 0.388319 -0.301257
148 1 0.969159 0.279895 0.5 0.5898 -0.67989
149 1 0.883008 0.147467 0.5 0.124518 0.112893
150 1 0.94293 0.989155 0.5 -0.2467 0.674586
151 1 0.926942 0.0186907 0.5 -0.180187 -0.664303
152 1 0.801031 0.961968 0.5 -0.783322 -0.369294
153 1 0.0559293 0.267141 0.5 -0.0380815 0.453216
154 1 0.91629 0.981842 0.5 0.519808 -0.640319
155 1 0.0685468 0.0402167 0.5 0.432411 -0.0860391
156 1 0.0290205 0.211497 0.5 -0.237575 -0.707695
157 1 0.0946447 0.939568 0.5 -0.241299 -0.810919
158 1 0.949278 0.255744 0.5 0.618076 -0.716035
159 1 0.088842 0.219224 0.5 0.256129 0.870212
160 1 0.891334 0.936 0.5 0.582413 0.762839
161 1 0.778195 0.94086 0.5 0.274485 0.25285
162 1 0.861544 0.914377 0.5 -0.78997 0.00550781
163 1 0.0925373 0.0380085 0.5 0.348198 -0.655205
164 1 0.89594 0.0281826 0.5 0.360697 -0.312673
165 1 0.993487 0.0901441 0.5 0.334096 -0.296244
166 1 0.160266 0.0703633 0.5 -0.0435945 0.772841
167 1 0.894554 0.983778 0.5 0.822731 -0.246771
168 1 0.850445 0.0754827 0.5 -0.186005 -0.220328
169 1 0.037395 0.0125154 0.5 0.0906351 0.159851
170 1 0.132901 0.0097324 0.5 -0.49923 0.630015
171 1 0.255903 0.87933 0.5 -0.565592 -0.713984
172 1 0.910616 0.137286 0.5 -0.584958 0.528995
173 1 0.977322 0.0876463 0.5 0.234604 -0.081527
174 1 0.849253 0.0864301 0.5 -0.649652 -0.370952
175 1 0.105433 0.289138 0.5 -0.208731 -0.291933
176 1 0.841147 0.172584 0.5 0.533913 -0.322348
177 1 0.0509628 0.37861 0.5 0.20354 0.601459
178 1 0.0296651 0.305283 0.5 -0.269605 -0.129726
179 1 0.1219 0.316915 0.5 0.315748 -0.77038
180 1 0.854092 0.953793 0.5 -0.571335 -0.234767
181 1 0.235872 0.912798 0.5 0.0884295 0.0817581
182 1 0.978706 0.156406 0.5 -0.0993688 -0.931566
183 1 0.961214 0.986752 0.5 0.398997 0.584683
184 1 0.12333 0.200528 0.5 -0.777713 0.423263
185 1 0.15053 0.0677595 0.5 -0.420834 0.634053
186 1 0.982658 0.0631945 0.5 0.356989 0.119651
187 1 0.113893 0.0627776 0.5 -0.0919136 0.879337
188 1 0.112533 0.108562 0.5 -0.51819 0.384358
189 1 0.0522686 0.123745 0.5 0.747551 0.00357057
190 1 0.7951 0.32078 0.5 0.881158 0.40111
191 1 0.939731 0.155859 0.5 0.319398 -0.799502
192 1 0.0950957 0.396463 0.5 0.569965 -0.491234
193 1 0.939927 0.00626212 0.5 -0.00581317 -0.392341
194 1 0.954999 0.182084 0.5 -0.00317443 -0.495231
195 1 0.00184818 0.263366 0.5 0.0799404 -0.827338
196 1 0.955905 0.0714794 0.5 0.839176 -0.178662
197 1 0.819007 0.191707 0.5 0.954206 0.0728401
198 1 0.96354 0.14312 0.5 0.25033 -0.562701
199 1 0.0396709 0.152781 0.5 -0.543542 -0.217674
200 1 0.0946802 0.109457 0.5 -0.220495 0.633131
201 1 0.067194 0.115943 0.5 0.536151 -0.126299
202 1 0.969173 0.974446 0.5 -0.527052 -0.219262
203 1 0.0235866 0.0970092 0.5 0.345076 -0.200467
204 1 0.901091 0.0032231 0.5 0.468091 0.160233
205 1 0.0629276 0.233615 0.5 -0.332108 0.543425
206 1 0.0503003 0.205082 0.5 0.517737 -0.230614
207 1 0.967428 0.197235 0.5 -0.186854 -0.483688
208 1 0.0839023 0.178628 0.5 -0.578365 0.163074
209 1 0.021259 0.0806336 0.5 0.635418 -0.712708
210 1 0.985677 0.113176 0.5 0.475546 -0.536542
211 1 0.867589 0.123175 0.5 0.64095 0.165999
212 1 0.785136 0.229819 0.5 0.581092 -0.0461853
213 1 0.952679 0.116613 0.5 0.501231 -0.78889
214 1 0.0486488 0.155897 0.5 -0.716842 -0.223835
215 1 0.952623 0.272424 0.5 0.402046 -0.701042
216 1 0.00818113 0.127209 0.5 -0.471097 0.0950592
217 1 0.857146 0.161402 0.5 0.839461 -0.24068
218 1 0.0470677 0.167335 0.5 -0.439226 0.286113
219 1 0.0334231 0.367242 0.5 -0.067224 0.178981
220 1 0.929269 0.851722 0.5 -0.17103 -0.440366
221 1 0.0533226 0.229567 0.5 -0.790801 -0.17906
222 1 0.948391 0.0981079 0.5 0.316393 -0.0561064
223 1 0.844329 0.146405 0.5 0.503474 -0.672999
224 1 0.960634 0.0810996 0.5 0.578195 -0.115134
225 1 0.818709 0.993765 0.5 -0.0289441 0.159779
226 1 0.952309 0.246126 0.5 0.758664 -0.515718
227 1 0.954585 0.994346 0.5 -0.178421 0.607028
228 1 0.925395 0.944682 0.5 -0.00800979 -0.0749006
229 1 0.0843026 0.0109229 0.5 -0.13382 -0.65113
230 1 0.861207 0.151776 0.5 0.494898 -0.778914
231 1 0.11497 0.0722718 0.5 -0.466631 0.847765
232 1 0.026506 0.10631 0.5 0.193868 -0.205034
233 1 0.923022 0.990572 0.5 0.0764198 -0.892806
234 1 0.00449593 0.073807 0.5 0.249818 0.189727
235 1 0.00324255 0.958211 0.5 -0.092221 0.865258
236 1 0.985727 0.163079 0.5 -0.264139 -0.88866
237 1 0.0098097 0.940443 0.5 -0.736643 0.460064
238 1 0.921394 0.122003 0.5 0.426847 -0.793188
239 1 0.00546701 0.032415 0.5 0.0366242 0.312556
240 1 0.993369 0.0615498 0.5 0.538845 0.350341
241 1 0.883317 0.209562 0.5 0.371396 -0.719477
242 1 0.96695 0.0353768 0.5 0.335525 0.582054
243 1 0.86847 0.210182 0.5 0.227279 -0.434927
244 1 0.957517 0.201273 0.5 0.422503 0.0649378
245 1 0.93351 0.035472 0.5 -0.0349417 -0.559036
246 1 0.0224129 0.149681 0.5 -0.190574 -0.163251
247 1 0.987297 0.0824327 0.5 0.182506 -0.142787
248 1 0.860794 0.239485 0.5 0.515714 -0.209675
249 1 0.0771784 0.0988221 0.5 0.0360421 0.400851
250 1 0.894789 0.0381551 0.5 0.229249 -0.310706
251 1 0.944508 0.0535928 0.5 0.315899 -0.21199
252 1 0.061959 0.103436 0.5 0.54438 0.156605
253 1 0.89643 0.011548 0.5 0.949014 0.135738
254 1 0.0753976 0.182873 0.5 -0.90162 0.112609
255 1 0.889881 0.953012 0.5 0.797573 0.342503
256 1 0.0595505 0.0209626 0.5 0.247354 0.659621
257 1 0.964362 0.0978541 0.5 0.400904 -0.205062
258 1 0.031917 0.122661 0.5 -0.460563 0.0488993
259 1 0.974599 0.995575 0.5 0.187593 0.559806
260 1 0.00428096 0.997905 0.5 -0.720956 0.291874
261 1 0.0700702 0.0232868 0.5 0.587826 -0.115893
262 1 0.961964 0.0441362 0.5 0.509254 0.518127
263 1 0.99657 0.0288628 0.5 0.360226 0.395081
264 1 0.859448 0.0452209 0.5 -0.361543 0.736656
265 1 0.0301844 0.0533561 0.5 0.571321 0.606745
266 1 0.76715 0.190363 0.5 0.80032 0.379273
267 1 0.00386077 0.234733 0.5 0.344958 -0.710339
268 1 0.841952 0.0707175 0.5 -0.294525 -0.359174
269 1 0.139847 0.381093 0.5 -0.813146 0.335181
270 1 0.956206 0.104898 0.5 0.0160164 -0.271565
271 1 0.137737 0.305935 0.5 0.0256451 -0.0897401
272 1 0.837298 0.0250413 0.5 0.15666 -0.0933499
273 1 0.27517 0.0347474 0.5 -0.0536123 0.694972
274 1 0.959838 0.0165598 0.5 0.260118 0.313596
275 1 0.933677 0.987078 0.5 -0.25884 -0.00656355
276 1 0.933692 0.184301 0.5 0.451208 -0.641223
277 1 0.879912 0.219963 0.5 0.505225 -0.461673
278 1 0.88812 0.10421 0.5 0.890356 -0.192321
279 1 0.0396783 0.105998 0.5 0.72784 -0.332242
280 1 0.0243088 0.138425 0.5 -0.629512 -0.156155
281 1 0.0380716 0.162292 0.5 -0.31446 -0.217773
282 1 0.978538 0.303346 0.5 0.036171 0.257308
283 1 0.0856558 0.209504 0.5 -0.373454 0.567926
284 1 0.0124018 0.961925 0.5 -0.538434 0.74869
285 1 0.0143714 0.971731 0.5 -0.335499 0.0299402
286 1 0.927799 0.083231 0.5 0.27145 -0.4762
287 1 0.990683 0.0364418 0.5 0.676063 0.175685
288 1 0.0373525 0.188761 0.5 0.423457 -0.530248
289 1 0.0162871 0.133311 0.5 -0.683507 -0.0955527
290 1 0.106522 0.00979458 0.5 0.781328 0.212712
291 1 0.84508 0.268092 0.5 0.542368 -0.333266
292 1 0.99609 0.142343 0.5 -0.115505 -0.580046
293 1 0.114964 0.0214462 0.5 -0.625487 0.242736
294 1 0.965986 0.0721583 0.5 0.332108 0.158234
295 1 0.0994211 0.297598 0.5 0.664276 0.065456
296 1 0.00275281 0.19659 0.5 -0.0383776 -0.63065
297 1 0.850835 0.90987 0.5 -0.649307 -0.389394
298 1 0.110777 0.166698 0.5 -0.247336 0.776371
299 1 0.989739 0.127519 0.5 -0.198859 -0.0941891
300 1 0.882924 0.114297 0.5 0.941759 -0.283967
301 1 0.94192 0.191807 0.5 0.519162 -0.685337
302 1 0.0453224 0.00718722 0.5 0.19801 0.503353
303 1 0.0145288 0.120146 0.5 -0.202128 -0.00672163
304 1 0.0141782 0.100296 0.5 -0.291863 -0.119212
305 1 0.930415 0.210037 0.5 0.57773 -0.177394
306 1 0.816444 0.136157 0.5 0.173269 -0.151705
307 1 0.0196422 0.17327 0.5 -0.170096 -0.432594
308 1 0.962211 0.918923 0.5 -0.934128 0.122322
309 1 0.0978093 0.078485 0.5 -0.159107 0.0133378
310 1 0.0026196 0.021546 0.5 0.326786 0.725211
311 1 0.937012 0.0265946 0.5 -0.0124352 -0.84411
312 1 0.995861 0.254738 0.5 0.281937 -0.721316
313 1 0.999725 0.0536851 0.5 0.877711 0.249433
314 1 0.8951 0.9632 0.5 0.772943 0.49452
315 1 0.0838937 0.634347 0.5 -0.684031 0.61856
316 1 0.083934 0.565996 0.5 -0.542959 0.570522
317 1 0.148619 0.515545 0.5 -0.222432 0.479475
318 1 0.110671 0.440711 0.5 0.297492 0.558834
319 1 0.232934 0.520703 0.5 -0.568643 0.450606
320 1 0.879256 0.193568 0.5 0.454318 -0.546606
321 1 0.213127 0.329042 0.5 0.41553 0.0767221
322 1 0.957012 0.237563 0.5 0.325079 -0.462606
323 1 0.187252 0.418689 0.5 -0.261487 0.443765
324 1 0.912291 0.148287 0.5 -0.567905 0.0959841
325 1 0.1583 0.628498 0.5 -0.478926 0.36679
326 1 0.892203 0.131495 0.5 0.658609 -0.0826202
327 1 0.00666768 0.106372 0.5 -0.562674 -0.100952
328 1 0.0504218 0.313674 0.5 -0.275379 0.438102
329 1 0.0905616 0.583568 0.5 0.0837324 -0.47039
330 1 0.124803 0.426846 0.5 -0.515259 0.448118
331 1 0.965209 0.167587 0.5 -0.237166 -0.443539
332 1 0.124593 0.406205 0.5 -0.381182 -0.463587
333 1 0.890249 0.0202111 0.5 0.840437 -0.0358201
334 1 0.136386 0.403378 0.5 0.443038 -0.565868
335 1 0.152878 0.424543 0.5 -0.24486 0.342059
336 1 0.92067 0.259799 0.5 0.652648 -0.422497
337 1 0.0253227 0.286601 0.5 0.330566 -0.242831
338 1 0.152158 0.395444 0.5 -0.0199166 0.580671
339 1 0.120795 0.457936 0.5 -0.382677 0.448014
340 1 0.0811814 0.415572 0.5 0.627138 -0.0159848
341 1 0.0708484 0.585728 0.5 -0.0247855 -0.267159
342 1 0.268942 0.574425 0.5 -0.667163 0.541665
343 1 0.0797492 0.33474 0.5 0.912988 0.061188
344 1 0.141258 0.521944 0.5 -0.27064 0.908936
345 1 0.135184 0.44452 0.5 0.233629 0.0388133
346 1 0.073476 0.389853 0.5 0.479548 0.0574711
347 1 0.0844849 0.325504 0.5 0.818166 -0.353402
348 1 0.0877215 0.370679 0.5 0.805947 0.289006
349 1 0.968452 0.253253 0.5 0.64465 -0.744481
350 1 0.98841 0.220393 0.5 -0.264575 -0.928704
351 1 0.082614 0.620722 0.5 0.264412 -0.300251
352 1 0.987116 0.258637 0.5 0.0445359 -0.65726
353 1 0.129868 0.32659 0.5 0.128968 -0.156563
354 1 0.859106 0.212875 0.5 0.369154 -0.784421
355 1 0.910118 0.233631 0.5 0.310952 -0.490494
356 1 0.0283855 0.180176 0.5 -0.227707 -0.698747
357 1 0.100679 0.498274 0.5 -0.752299 0.620813
358 1 0.124852 0.537571 0.5 -0.0159429 0.201635
359 1 0.988036 0.0532109 0.5 0.840543 0.219356
360 1 0.205585 0.508758 0.5 -0.828392 0.311035
361 1 0.942084 0.210525 0.5 0.807171 -0.110356
362 1 0.105892 0.345779 0.5 0.979678 -0.0853983
363 1 0.093369 0.464832 0.5 -0.0477854 -0.0122702
364 1 0.016866 0.314591 0.5 0.455024 0.362576
365 1 0.211432 0.398998 0.5 -0.906181 -0.0198255
366 1 0.921686 0.416537 0.5 -0.904116 -0.0555688
367 1 0.196582 0.412941 0.5 -0.340569 0.460711
368 1 0.0992966 0.487699 0.5 -0.743453 0.634854
369 1 0.118695 0.381364 0.5 -0.0448063 0.0130926
370 1 0.915663 0.380088 0.5 -0.355581 -0.38873
371 1 0.951334 0.299565 0.5 0.437107 -0.692192
372 1 0.00743451 0.281697 0.5 0.535252 -0.752968
373 1 0.107615 0.572736 0.5 -0.387033 0.152458
374 1 0.884855 0.320322 0.5 -0.380954 -0.756137
375 1 0.0554373 0.369092 0.5 0.346329 0.657051
376 1 0.0943595 0.627644 0.5 -0.759129 0.404709
377 1 0.010447 0.591049 0.5 0.769883 -0.0642666
378 1 0.938606 0.219683 0.5 0.746698 -0.301597
379 1 0.945326 0.135193 0.5 0.220321 -0.790981
380 1 0.0244859 0.334208 0.5 0.386606 0.675215
381 1 0.195448 0.503657 0.5 -0.738698 0.464833
382 1 0.0925247 0.513575 0.5 -0.400877 0.731571
383 1 0.239153 0.635037 0.5 -0.729479 -0.567281
384 1 0.075035 0.517794 0.5 0.463704 0.345619
385 1 0.0805068 0.380975 0.5 0.767978 -0.0469859
386 1 0.116538 0.599831 0.5 -0.607838 0.448614
387 1 0.224844 0.694011 0.5 -0.502941 -0.65276
388 1 0.896518 0.225365 0.5 0.394525 -0.582723
389 1 0.173687 0.614541 0.5 -0.623186 0.300949
390 1 0.0286765 0.295724 0.5 -0.221883 0.166794
391 1 0.155516 0.618955 0.5 -0.5781 0.532629
392 1 0.00902402 0.301201 0.5 0.0309789 -0.150107
393 1 0.141453 0.684678 0.5 -0.59279 0.335927
394 1 0.952717 0.191777 0.5 0.48503 -0.0772932
395 1 0.205058 0.451064 0.5 0.365738 0.644332
396 1 0.965016 0.262309 0.5 0.406895 -0.831887
397 1 0.195309 0.7202 0.5 -0.328611 0.0578267
398 1 0.93241 0.0916222 0.5 0.458382 -0.69654
399 1 0.875464 0.140856 0.5 0.64708 -0.141839
400 1 0.0990423 0.58904 0.5 -0.733547 -0.0884398
401 1 0.935631 0.266227 0.5 0.702091 -0.636758
402 1 0.975136 0.260989 0.5 0.105279 -0.828086
403 1 0.173219 0.36751 0.5 -0.443501 0.173393
404 1 0.027126 0.315864 0.5 0.64746 0.250028
405 1 0.984358 0.602545 0.5 0.022137 -0.753567
406 1 0.233228 0.325223 0.5 -0.0988734 -0.257994
407 1 0.0219807 0.443769 0.5 0.678212 -0.429569
408 1 0.978385 0.327934 0.5 -0.174348 0.348646
409 1 0.000536063 0.272693 0.5 0.0915884 -0.691868
410 1 0.107311 0.584248 0.5 -0.766249 0.264155
411 1 0.105254 0.328104 0.5 0.771621 -0.154369
412 1 0.137386 0.537887 0.5 0.0146904 0.541606
413 1 0.928873 0.0620651 0.5 -0.0907191 0.565305
414 1 0.0926433 0.432632 0.5 0.408598 -0.0641004
415 1 0.0919102 0.228466 0.5 0.0233187 0.951505
416 1 0.021046 0.353166 0.5 0.0844481 0.885788
417 1 0.975412 0.233119 0.5 0.0655076 -0.894627
418 1 0.926062 0.311477 0.5 0.350468 -0.681961
419 1 0.131883 0.31412 0.5 0.299185 -0.373469
420 1 0.0590182 0.317625 0.5 -0.546603 -0.0680427
421 1 0.92362 0.247156 0.5 0.262603 -0.516148
422 1 0.162792 0.331889 0.5 0.233653 0.309953
423 1 0.974563 0.176003 0.5 0.129213 -0.750652
424 1 0.15236 0.489554 0.5 -0.271204 0.303055
425 1 0.120489 0.505429 0.5 -0.432414 0.694061
426 1 0.0348527 0.33357 0.5 0.708992 0.341113
427 1 0.032821 0.392512 0.5 -0.984691 0.0824452
428 1 0.124195 0.467994 0.5 -0.280243 0.766446
429 1 0.0181721 0.280386 0.5 0.228227 -0.805221
430 1 0.920699 0.229574 0.5 0.37531 -0.280792
431 1 0.880641 0.283379 0.5 0.522671 -0.776275
432 1 0.0746146 0.630267 0.5 -0.0510243 0.773086
433 1 0.976766 0.194069 0.5 0.0767033 -0.826931
434 1 0.0675906 0.454625 0.5 0.283053 -0.0678278
435 1 0.108461 0.548032 0.5 -0.379435 0.849902
436 1 0.0717471 0.291186 0.5 0.118549 0.542149
437 1 0.129908 0.62594 0.5 -0.942602 0.283323
438 1 0.0418391 0.324457 0.5 0.781144 0.241276
439 1 0.908595 0.124712 0.5 0.227684 0.401026
440 1 0.105821 0.471331 0.5 -0.0595218 0.712161
441 1 0.1209 0.514967 0.5 -0.649971 0.700637
442 1 0.0806697 0.47948 0.5 -0.675782 0.624216
443 1 0.19293 0.645666 0.5 -0.0962084 0.660604
444 1 0.111237 0.51139 0.5 -0.543804 0.78276
445 1 0.969778 0.308332 0.5 0.130615 -0.132378
446 1 0.157404 0.720189 0.5 -0.252489 0.530669
447 1 0.175313 0.637935 0.5 -0.616198 0.21316
448 1 0.0248698 0.491665 0.5 -0.172671 0.268054
449 1 0.18572 0.500865 0.5 -0.593651 0.156664
450 1 0.140534 0.463502 0.5 -0.142512 0.867094
451 1 0.117143 0.496161 0.5 -0.428861 0.550514
452 1 0.200102 0.59692 0.5 -0.484551 0.58631
453 1 0.933334 0.228533 0.5 0.742291 0.0802635
454 1 0.0130587 0.14636 0.5 -0.0488019 -0.0962377
455 1 0.898471 0.104471 0.5 0.795752 0.170018
456 1 0.896831 0.198307 0.5 0.807613 -0.573896
457 1 0.979379 0.400349 0.5 -0.351218 -0.486724
458 1 0.00115099 0.319347 0.5 -0.241132 0.68502
459 1 0.961509 0.299667 0.5 0.502423 -0.685286
460 1 0.983158 0.69037 0.5 0.131895 -0.481472
461 1 0.00551575 0.632626 0.5 -0.33963 0.489558
462 1 0.0771831 0.662771 0.5 -0.581111 -0.0933483
463 1 0.0983506 0.386952 0.5 0.524514 -0.34718
464 1 0.968488 0.10664 0.5 0.586715 -0.253107
465 1 0.980021 0.103902 0.5 0.688477 -0.573845
466 1 0.0227248 0.612753 0.5 -0.495634 -0.118584
467 1 0.0178976 0.727258 0.5 -0.382006 0.80792
468 1 0.854645 0.295639 0.5 0.69939 -0.5221
469 1 0.941629 0.0727487 0.5 0.384251 0.142008
470 1 0.906797 0.286531 0.5 0.395702 -0.392391
471 1 0.0281654 0.562806 0.5 0.914303 -0.0181152
472 1 0.0915404 0.600738 0.5 0.836215 -0.331752
473 1 0.958914 0.308958 0.5 0.721727 -0.371016
474 1 0.0718271 0.464456 0.5 0.00349166 -0.538671
475 1 0.207234 0.417745 0.5 -0.403557 0.267831
476 1 0.900641 0.234818 0.5 0.749333 -0.427814
477 1 0.156136 0.547588 0.5 -0.649248 0.742498
478 1 0.160631 0.569572 0.5 -0.444669 0.580181
479 1 0.764005 0.227647 0.5 0.105488 0.19106
480 1 0.111961 0.388606 0.5 0.150835 0.568533
481 1 0.0171228 0.341252 0.5 0.29645 0.844527
482 1 0.931832 0.275849 0.5 0.354419 -0.82385
483 1 0.196296 0.378215 0.5 -0.669138 -0.583171
484 1 0.0140813 0.435273 0.5 -0.224837 -0.626612
485 1 0.174012 0.480513 0.5 -0.46758 -0.270925
486 1 0.0487269 0.302383 0.5 0 0
487 1 0.0303682 0.425038 0.5 0.256719 -0.593447
488 1 0.121117 0.353792 0.5 0.832254 -0.375846
489 1 0.0846372 0.575298 0.5 0.0442111 0.211526
490 1 0.998938 0.359883 0.5 0.116964 -0.398154
491 1 0.0737031 0.305885 0.5 0.674346 0.00969913
492 1 0.0667957 0.267746 0.5 0.0300608 0.132556
493 1 0.93633 0.110922 0.5 0.16673 -0.866746
494 1 0.128483 0.385926 0.5 -0.558934 0.00800415
495 1 0.00673927 0.340378 0.5 0.305739 0.798275
496 1 0.903311 0.253449 0.5 0.549215 -0.751957
497 1 0.0700725 0.380797 0.5 0.83537 0.429017
498 1 0.0822807 0.442259 0.5 0.392927 0.299243
499 1 0.907041 0.243497 0.5 0.307306 -0.83518
500 1 0.980036 0.351667 0.5 -0.405142 0.299682
501 1 0.0485579 0.705734 0.5 0.685799 0.510874
502 1 0.0619945 0.125272 0.5 0.838108 0.106062
503 1 0.886413 0.290995 0.5 0.847579 -0.341715
504 1 0.07588 0.673025 0.5 -0.537393 -0.603081
505 1 0.000325663 0.206372 0.5 -0.513365 -0.790983
506 1 0.185476 0.719243 0.5 -0.445206 0.386504
507 1 0.101801 0.406572 0.5 0.397693 0.0176308
508 1 0.0909688 0.504321 0.5 -0.693254 0.629362
509 1 0.130555 0.518157 0.5 -0.341436 0.788325
510 1 0.126582 0.584669 0.5 0.159268 -0.347677
511 1 0.0629191 0.570907 0.5 -0.0423944 0.0313816
512 1 0.971086 0.642987 0.5 0.356454 0.766861
513 1 0.943042 0.318202 0.5 0.755978 -0.438057
514 1 0.104119 0.674837 0.5 -0.814721 0.183906
515 1 0.0749015 0.702685 0.5 -0.685032 0.140752
516 1 0.0952292 0.523287 0.5 -0.315694 0.57512
517 1 0.955527 0.263447 0.5 0.543616 -0.802168
518 1 0.0980327 0.4777 0.5 -0.468977 0.729055
519 1 0.072198 0.497461 0.5 -0.433025 -0.0315966
520 1 0.0239658 0.571752 0.5 0.810802 -0.0324632
521 1 0.0581762 0.350755 0.5 0.516034 0.807841
522 1 0.0890604 0.42272 0.5 0.539521 -0.0479728
523 1 0.920305 0.211411 0.5 0.724444 -0.552689
524 1 0.967596 0.0879472 0.5 0.631861 -0.529878
525 1 0.105942 0.267837 0.5 -0.742982 -0.297724
526 1 0.0909875 0.335573 0.5 0.890678 0.12103
527 1 0.996335 0.628125 0.5 -0.135959 0.870524
528 1 0.25743 0.47643 0.5 -0.0946156 0.146598
529 1 0.159157 0.459784 0.5 0.261268 0.913666
530 1 0.791697 0.0463562 0.5 -0.170328 0.187369
531 1 0.0831269 0.544674 0.5 -0.193093 -0.776666
532 1 0.947834 0.199944 0.5 0.846075 0.0299685
533 1 0.0815169 0.431742 0.5 0.240273 0.0998596
534 1 0.119838 0.620388 0.5 -0.877059 0.34562
535 1 0.0685152 0.476409 0.5 -0.256127 0.104761
536 1 0.933237 0.635028 0.5 -0.49775 -0.0848808
537 1 0.111116 0.335766 0.5 0.771271 -0.0477924
538 1 0.142968 0.282921 0.5 -0.52109 -0.460002
539 1 0.224659 0.39142 0.5 -0.497153 -0.207497
540 1 0.036596 0.452665 0.5 0.160624 0.396209
541 1 0.115259 0.711031 0.5 -0.199402 0.656704
542 1 0.918016 0.131109 0.5 0.125861 -0.0349889
543 1 0.0147897 0.553343 0.5 0.210939 0.384184
544 1 0.0781097 0.283103 0.5 -0.30341 0.57968
545 1 0.133768 0.566438 0.5 -0.578614 0.317059
546 1 0.0131895 0.62552 0.5 -0.589647 -0.0938231
547 1 0.187607 0.370126 0.5 -0.133507 -0.520215
548 1 0.992603 0.673827 0.5 0.257687 0.766016
549 1 0.0242971 0.39734 0.5 -0.984869 -0.0549988
550 1 0.803056 0.202148 0.5 0.892609 0.101131
551 1 0.207866 0.460147 0.5 0.130039 0.920825
552 1 0.970733 0.297742 0.5 0.182693 -0.573973
553 1 0.989557 0.181605 0.5 0.394492 -0.720064
554 1 0.130196 0.636019 0.5 -0.786955 0.383491
555 1 0.0700904 0.334109 0.5 0.896475 0.294509
556 1 0.689345 0.264736 0.5 0.71738 -0.307263
557 1 0.830002 0.209213 0.5 0.836089 -0.381884
558 1 0.205712 0.74815 0.5 -0.955843 0.0775927
559 1 0.187097 0.383052 0.5 -0.807629 -0.479175
560 1 0.0610779 0.501434 0.5 0.0296573 -0.104546
561 1 0.895945 0.244822 0.5 0.845138 -0.379486
562 1 0.986372 0.531964 0.5 0.277478 0.590169
563 1 0.139511 0.324948 0.5 -0.258603 -0.18691
564 1 0.027701 0.344611 0.5 0.462887 0.711119
565 1 0.117366 0.433931 0.5 -0.119834 0.906758
566 1 0.0668605 0.646209 0.5 -0.948357 -0.110043
567 1 0.108989 0.60556 0.5 -0.813342 0.276898
568 1 0.88156 0.256399 0.5 0.635518 -0.660594
569 1 0.13572 0.480754 0.5 -0.491762 0.771723
570 1 0.024742 0.387864 0.5 -0.425192 -0.186698
571 1 0.226771 0.467482 0.5 -0.725688 -0.00780032
572 1 0.146343 0.543227 0.5 -0.610021 0.670084
573 1 0.0484977 0.424032 0.5 -0.279194 0.409644
574 1 0.122569 0.372023 0.5 0.523178 0.0623407
575 1 0.00990891 0.504975 0.5 -0.758928 -0.151359
576 1 0.139562 0.583153 0.5 0.391797 -0.105594
577 1 0.0996058 0.578715 0.5 -0.561439 -0.28237
578 1 0.169676 0.51139 0.5 -0.288247 0.663508
579 1 0.964435 0.31663 0.5 0.678408 0.178749
580 1 0.927902 0.130823 0.5 0.401539 -0.726969
581 1 0.988801 0.397723 0.5 -0.258585 -0.313921
582 1 0.0548587 0.439546 0.5 -0.709347 -0.643084
583 1 0.992384 0.238021 0.5 0.0548468 -0.903073
584 1 0.900946 0.142453 0.5 -0.53233 0.314968
585 1 0.0977522 0.370577 0.5 0.488082 0.37518
586 1 0.233549 0.653773 0.5 -0.0283755 -0.662187
587 1 0.750034 0.293643 0.5 0.916461 0.0928419
588 1 0.949753 0.327881 0.5 0.0403324 -0.624077
589 1 0.967516 0.59389 0.5 0.814845 0.0134242
590 1 0.138551 0.549653 0.5 -0.659042 0.632548
591 1 0.968423 0.187873 0.5 -0.155648 -0.20218
592 1 0.211885 0.492832 0.5 -0.814019 0.382954
593 1 0.14747 0.633743 0.5 -0.391891 -0.0175002
594 1 0.164456 0.71263 0.5 -0.292951 0.622329
595 1 0.25238 0.694954 0.5 0.318967 -0.620611
596 1 0.0776234 0.263501 0.5 -0.324863 -0.384693
597 1 0.0984788 0.422425 0.5 0.371756 -0.246425
598 1 0.912845 0.0942889 0.5 0.823663 -0.385917
599 1 0.20147 0.557349 0.5 -0.705875 0.55528
600 1 0.0465864 0.34833 0.5 0.081199 0.55601
601 1 0.1368 0.43446 0.5 -0.12178 -0.363445
602 1 0.0766206 0.405754 0.5 0.582679 0.0853832
603 1 0.101451 0.621175 0.5 -0.602996 0.558587
604 1 0.0552949 0.508902 0.5 -0.183604 0.210046
605 1 0.100673 0.554127 0.5 -0.321786 0.824217
606 1 0.0618231 0.288795 0.5 0.050997 0.81722
607 1 0.0377745 0.562987 0.5 0.55289 0.0992487
608 1 0.0766419 0.205554 0.5 -0.637341 0.258185
609 1 0.982468 0.699853 0.5 0.0613728 -0.494696
610 1 0.102035 0.508013 0.5 -0.650404 0.671666
611 1 0.106684 0.538613 0.5 -0.50605 0.512362
612 1 0.803749 0.292721 0.5 0.773484 -0.276104
613 1 0.902063 0.0956661 0.5 0.851874 -0.167373
614 1 0.984222 0.29598 0.5 0.434314 -0.564516
615 1 0.959598 0.281894 0.5 0.691783 -0.522021
616 1 0.0511588 0.531808 0.5 0.342689 -0.202294
617 1 0.853445 0.204928 0.5 0.144928 -0.409544
618 1 0.170293 0.521564 0.5 -0.58575 0.66043
619 1 0.0140111 0.290367 0.5 0.642825 -0.553765
620 1 0.0133364 0.39114 0.5 -0.437739 -0.185837
621 1 0.0804369 0.58405 0.5 0.783645 -0.494688
622 1 0.147533 0.624048 0.5 -0.837932 0.420312
623 1 0.112955 0.660999 0.5 -0.376935 0.00817681
624 1 0.104524 0.528337 0.5 -0.644062 0.544083
625 1 0.831169 0.312142 0.5 0.243319 0.352976
626 1 0.890957 0.236582 0.5 0.86858 -0.10363
627 1 0.0709578 0.621017 0.5 0.234092 0.605132
628 1 0.132556 0.41274 0.5 -0.251986 -0.584154
629 1 0.962418 0.272958 0.5 0.420339 -0.674734
630 1 0.141763 0.643091 0.5 -0.2526 -0.290539