ITEM: TIMESTEP
0
ITEM: NUMBER OF ATOMS
9891
ITEM: BOX BOUNDS pp pp pp
-5.8359999999999999e+01 5.8359999999999999e+01
-5.8359999999999999e+01 5.8359999999999999e+01
-5.0000000000000000e-01 5.0000000000000000e-01
ITEM: ATOMS id type xs ys zs c_002[1] c_002[2]
1 1 0.293306 0.992385 0.5 0.747825 0.100168
2 1 0.112655 0.0289436 0.5 0.522222 -0.405388
3 1 0.0924105 0.397305 0.5 -0.146478 -0.491362
4 1 0.157144 0.150088 0.5 0.838086 -0.228982
5 1 0.419787 0.00554929 0.5 -0.25653 0.348527
6 1 0.161363 0.694648 0.5 -0.695363 0.125451
7 1 0.790865 0.422432 0.5 0.789845 -0.554647
8 1 0.830768 0.316221 0.5 -0.155217 -0.822062
9 1 0.0558163 0.144023 0.5 0.723337 -0.433878
10 1 0.935562 0.313003 0.5 0.495014 -0.842865
11 1 0.960318 0.129617 0.5 0.721664 -0.498781
12 1 0.203616 0.368254 0.5 0.719613 -0.218914
13 1 0.219097 0.10509 0.5 0.957084 0.0404549
14 1 0.20755 0.0897213 0.5 0.349549 -0.541498
15 1 0.968193 0.137674 0.5 0.563989 -0.241424
16 1 0.14733 0.43003 0.5 0.41205 0.406902
17 1 0.930386 0.17865 0.5 0.0282874 0.328426
18 1 0.138704 0.980749 0.5 -0.506231 -0.282172
19 1 0.0625398 0.366663 0.5 -0.52779 -0.388577
20 1 0.0768059 0.315858 0.5 -0.159143 0.256207
21 1 0.230586 0.511018 0.5 0.230013 -0.151874
22 1 0.733262 0.529257 0.5 0.45486 -0.0909778
23 1 0.235955 0.177382 0.5 0.715555 -0.000899641
24 1 0.8587 0.359545 0.5 0.922544 -0.311519
25 1 0.261537 0.015007 0.5 0.894151 0.211954
26 1 0.114683 0.185412 0.5 0.944438 0.0693411
27 1 0.989928 0.320694 0.5 0.0377239 -0.125083
28 1 0.315887 0.398603 0.5 0.353166 -0.0051608
29 1 0.874639 0.324415 0.5 0.157356 -0.0719271
30 1 0.130035 0.270044 0.5 0.723473 0.122466
31 1 0.20766 0.451974 0.5 0.0866526 0.272744
32 1 0.456676 0.801884 0.5 0.30956 0.71857
33 1 0.0668146 0.270982 0.5 0.477194 -0.832307
34 1 0.816564 0.620694 0.5 0.379461 -0.0727165
35 1 0.0710729 0.888558 0.5 -0.113746 0.637269
36 1 0.238749 0.113947 0.5 -0.493297 -0.442174
37 1 0.225403 0.231459 0.5 0.969364 0.0733782
38 1 0.171333 0.454593 0.5 -0.601133 0.562292
39 1 0.345293 0.488451 0.5 0.644164 0.31625
40 1 0.0590111 0.0176097 0.5 0.487945 -0.350457
41 1 0.882455 0.255309 0.5 0.018983 0.538036
42 1 0.0182944 0.294461 0.5 -0.0113692 0.976019
43 1 0.0465635 0.214105 0.5 0.691706 0.39372
44 1 0.152706 0.477281 0.5 -0.670797 0.13242
45 1 0.970352 0.471876 0.5 0.22779 -0.0624967
46 1 0.854061 0.543825 0.5 0.106458 -0.82122
47 1 0.137114 0.431781 0.5 0.110287 -0.415563
48 1 0.310623 0.985792 0.5 0.847181 0.413539
49 1 0.0288112 0.0839872 0.5 -0.852779 0.304526
50 1 0.124663 0.185646 0.5 0.97027 -0.0573675
51 1 0.0270763 0.231025 0.5 -0.811211 0.0973668
52 1 0.208125 0.186576 0.5 0.441471 0.875895
53 1 0.972706 0.31767 0.5 0.276156 -0.676833
54 1 0.163007 0.409453 0.5 -0.558415 -0.569024
55 1 0.902717 0.344967 0.5 0.630919 -0.545886
56 1 0.337828 0.294331 0.5 0.299047 -0.0726922
57 1 0.0928083 0.588403 0.5 0.456322 0.601924
58 1 0.731245 0.462618 0.5 0.579787 -0.158763
59 1 0.231413 0.168621 0.5 0.779075 0.477329
60 1 0.36483 0.0095542 0.5 0.707406 0.0365965
61 1 0.0983475 0.308885 0.5 0.378456 0.156622
62 1 0.942526 0.479734 0.5 0.705175 -0.537461
63 1 0.979794 0.210527 0.5 -0.65539 -0.52236
64 1 0.967447 0.185224 0.5 0.0423264 -0.554951
65 1 0.227788 0.123255 0.5 0.690538 0.384289
66 1 0.115687 0.0189299 0.5 0.518035 -0.666524
67 1 0.879541 0.589063 0.5 0.440909 0.846198
68 1 0.189106 0.2944 0.5 0.728439 -0.0578843
69 1 0.232432 0.0779982 0.5 0.509868 -0.247253
70 1 0.935574 0.246175 0.5 0.591448 -0.675781
71 1 0.952924 0.320475 0.5 0.8042 -0.468652
72 1 0.929939 0.133286 0.5 0.830624 -0.382103
73 1 0.991087 0.468846 0.5 0.501082 -0.195007
74 1 0.0834749 0.276234 0.5 0.429657 0.082058
75 1 0.0495984 0.60242 0.5 0.22466 -0.161715
76 1 0.0155635 0.216183 0.5 -0.560203 0.352526
77 1 0.227599 0.041458 0.5 0.743988 -0.448796
78 1 0.0827888 0.131315 0.5 0.623479 -0.708803
79 1 0.92232 0.222384 0.5 -0.0382508 -0.10438
80 1 0.246068 0.00357462 0.5 0.699786 0.468215
81 1 0.428919 0.0521236 0.5 0.24142 0.380983
82 1 0.780739 0.471315 0.5 0.544174 -0.793266
83 1 0.100431 0.269408 0.5 0.709733 -0.23743
84 1 0.00693686 0.21229 0.5 -0.901776 0.229843
85 1 0.194266 0.156947 0.5 0.957562 -0.269119
86 1 0.90813 0.130984 0.5 -0.368769 0.185864
87 1 0.146816 0.536619 0.5 -0.374883 0.767737
88 1 0.977793 0.44957 0.5 0.486351 -0.472595
89 1 0.202486 0.526023 0.5 -0.116357 0.572303
90 1 0.982876 0.441129 0.5 0.520425 -0.583622
91 1 0.958893 0.233089 0.5 -0.253416 -0.396494
92 1 0.768964 0.405344 0.5 0.454797 -0.674733
93 1 0.992056 0.439087 0.5 0.543202 -0.66278
94 1 0.204116 0.53646 0.5 0.0475663 0.527867
95 1 0.803319 0.344366 0.5 0.755107 0.108914
96 1 0.306642 0.366999 0.5 0.855999 0.201546
97 1 0.926157 0.287419 0.5 0.953594 -0.153743
98 1 0.669104 0.299463 0.5 0.0809666 0.105066
99 1 0.16218 0.0745721 0.5 0.556257 -0.728288
100 1 0.226228 0.157775 0.5 0.634015 0.0626046
101 1 0.89828 0.582263 0.5 0.476279 0.623019
102 1 0.578075 0.424682 0.5 0.736298 0.121352
103 1 0.0570206 0.272449 0.5 0.226308 -0.0349735
104 1 0.886738 0.939403 0.5 -0.52199 -0.252258
105 1 0.771495 0.110432 0.5 -0.0516307 0.855169
106 1 0.134098 0.202767 0.5 0.606649 0.0951784
107 1 0.125526 0.279416 0.5 0.770307 0.423404
108 1 0.358192 0.417646 0.5 -0.495002 -0.0947242
109 1 0.396549 0.954118 0.5 0.30495 0.688764
110 1 0.0573413 0.482943 0.5 -0.731297 -0.343426
111 1 0.175629 0.185969 0.5 0.229911 -0.570719
112 1 0.779723 0.566311 0.5 0.435233 -0.873243
113 1 0.289688 0.379379 0.5 0.00253112 -0.136259
114 1 0.873959 0.549292 0.5 -0.152902 0.0296733
115 1 0.0115739 0.521323 0.5 -0.140556 -0.918389
116 1 0.240589 0.203845 0.5 0.538858 0.154767
117 1 0.0863776 0.314167 0.5 -0.152841 -0.356999
118 1 0.0225051 0.196972 0.5 0.127791 0.169144
119 1 0.140902 0.231731 0.5 0.945116 0.250545
120 1 0.909799 0.43869 0.5 -0.0886862 0.0381226
121 1 0.868497 0.359704 0.5 0.747627 -0.506095
122 1 0.123892 0.568797 0.5 -0.107042 0.798413
123 1 0.986136 0.276887 0.5 -0.0183336 0.891072
124 1 0.339418 0.191341 0.5 0.210786 0.824017
125 1 0.0104249 0.265436 0.5 -0.379498 0.764555
126 1 0.291635 0.949878 0.5 0.522974 0.256375
127 1 0.115188 0.240795 0.5 0.960204 -0.0152803
128 1 0.778964 0.138928 0.5 -0.360765 0.119889
129 1 0.06711 0.311325 0.5 -0.546021 0.515866
130 1 0.994544 0.18724 0.5 -0.448113 -0.308648
131 1 0.132864 0.451277 0.5 0.519074 -0.667981
132 1 0.144099 0.0481027 0.5 0.685732 -0.408087
133 1 0.0820024 0.168095 0.5 0.537939 0.0867563
134 1 0.281778 0.0912381 0.5 -0.744133 0.286874
135 1 0.874872 0.367101 0.5 0.795413 -0.519261
136 1 0.0964105 0.442838 0.5 -0.36781 -0.73986
137 1 0.871469 0.441549 0.5 0.92401 0.110203
138 1 0.21114 0.517021 0.5 -0.0485316 -0.260891
139 1 0.910884 0.547629 0.5 0.771618 0.170396
140 1 0.394206 0.359122 0.5 -0.00681793 -0.958049
141 1 0.060904 0.548812 0.5 0.950567 -0.139378
142 1 0.855102 0.259835 0.5 0 0
143 1 0.957322 0.357496 0.5 -0.236106 -0.59358
144 1 0.160428 0.140326 0.5 0.751445 -0.0775137
145 1 0.951642 0.944521 0.5 0.25071 0.370825
146 1 0.263441 0.151972 0.5 0.844288 -0.238313
147 1 0.755388 0.515536 0.5 0.187272 0.431505
148 1 0.12064 0.0100256 0.5 0.824403 -0.473799
149 1 0.0954181 0.875198 0.5 0.408684 0.308553
150 1 0.00240398 0.51471 0.5 -0.18 -0.73397
151 1 0.107866 0.534895 0.5 0.343827 0.457043
152 1 0.90056 0.478472 0.5 0.00026852 -0.0966694
153 1 0.944007 0.215527 0.5 -0.60413 -0.6681
154 1 0.963918 0.935829 0.5 0.498973 -0.516725
155 1 0.02332 0.421094 0.5 -0.31652 -0.399352
156 1 0.958855 0.366902 0.5 -0.225637 0.148686
157 1 0.172882 0.092605 0.5 0.905776 -0.0920809
158 1 0.995605 0.312947 0.5 -0.0682236 0.210187
159 1 0.860136 0.333653 0.5 -0.0619951 -0.704396
160 1 0.936534 0.287182 0.5 0.721458 -0.422808
161 1 0.425959 0.0430517 0.5 -0.0266336 0.0864456
162 1 0.0986203 0.178065 0.5 0.575239 0.421661
163 1 0.0546465 0.37246 0.5 -0.358282 -0.297331
164 1 0.0729934 0.394458 0.5 0.206366 -0.677165
165 1 0.299172 0.150853 0.5 0.738695 0.518858
166 1 0.944268 0.60571 0.5 0.197051 -0.0847106
167 1 0.121029 0.586629 0.5 -0.0149643 0.888088
168 1 0.120146 0.140493 0.5 0.969507 -0.0823765
169 1 0.152608 0.0931041 0.5 0.924039 0.163478
170 1 0.2291 0.104371 0.5 0.699872 -0.513253
171 1 0.915803 0.271303 0.5 0.106208 -0.656201
172 1 0.10509 0.439242 0.5 -0.169471 -0.766888
173 1 0.151363 0.214447 0.5 0.903386 -0.0811588
174 1 0.87615 0.502828 0.5 -0.0841075 -0.822356
175 1 0.846103 0.338264 0.5 -0.245996 -0.397649
176 1 0.872495 0.350473 0.5 0.747879 -0.530952
177 1 0.0742845 0.243027 0.5 0.524887 -0.0975428
178 1 0.114478 0.317509 0.5 0.777034 -0.0636896
179 1 0.0365489 0.448574 0.5 0.447312 -0.794664
180 1 0.875528 0.286069 0.5 0.380135 -0.533779
181 1 0.356998 0.427369 0.5 0 0
182 1 0.906394 0.495613 0.5 -0.103598 -0.859841
183 1 0.0163174 0.452002 0.5 0.216078 -0.453108
184 1 0.192235 0.901132 0.5 -0.712712 0.501054
185 1 0.850649 0.3189 0.5 -0.627494 0.0926582
186 1 0.110041 0.249145 0.5 0.868297 0.20835
187 1 0.220726 0.0132258 0.5 0.361187 -0.325477
188 1 0.276954 0.215787 0.5 0.695748 -0.395895
189 1 0.021237 0.922326 0.5 -0.129693 -0.73464
190 1 0.976194 0.36335 0.5 -0.837346 0.218014
191 1 0.0275232 0.261116 0.5 0.0408415 0.544493
192 1 0.336211 0.425518 0.5 0.691348 0.480713
193 1 0.831118 0.399356 0.5 0.659424 -0.629494
194 1 0.221466 0.0341647 0.5 0.739735 -0.295632
195 1 0.861963 0.322592 0.5 -0.123716 0.17138
196 1 0.375962 0.364372 0.5 0.100219 -0.466689
197 1 0.104241 0.335392 0.5 0.89309 0.0947129
198 1 0.0485362 0.268556 0.5 -0.566175 0.0338458
199 1 0.906187 0.288637 0.5 0.402804 -0.0350846
200 1 0.164922 0.865045 0.5 -0.962832 -0.0142866
201 1 0.926597 0.23687 0.5 -0.0687893 -0.617518
202 1 0.529123 0.712719 0.5 -0.210416 0.852244
203 1 0.0207476 0.518742 0.5 0.203694 -0.300747
204 1 0.921583 0.546851 0.5 0.631976 0.0543076
205 1 0.175786 0.395037 0.5 0.204735 -0.488723
206 1 0.0953086 0.532976 0.5 0.348322 0.870176
207 1 0.847776 0.562819 0.5 -0.248792 -0.63976
208 1 0.828512 0.530342 0.5 -0.156303 -0.814237
209 1 0.0544825 0.249106 0.5 0.0513676 -0.239926
210 1 0.209387 0.104565 0.5 0.212759 0.161639
211 1 0.181925 0.00606582 0.5 0.512153 0.107534
212 1 0.0634044 0.530919 0.5 0.106823 0.0689737
213 1 0.807203 0.62533 0.5 0.082398 -0.33726
214 1 0.801031 0.523932 0.5 0.675049 -0.525225
215 1 0.980343 0.541226 0.5 0.564923 0.1815
216 1 0.144843 0.503149 0.5 -0.679324 -0.494396
217 1 0.846082 0.45074 0.5 0.519635 -0.575598
218 1 0.16628 0.311448 0.5 0.213011 0.282887
219 1 0.951919 0.417737 0.5 0.418193 -0.717863
220 1 0.0503448 0.464983 0.5 -0.0307922 -0.950105
221 1 0.0838459 0.494479 0.5 0.351413 -0.0868685
222 1 0.0711268 0.132595 0.5 0.421468 -0.790179
223 1 0.271077 0.0604776 0.5 0.48726 -0.377841
224 1 0.788264 0.142581 0.5 -0.725283 0.0655721
225 1 0.272044 0.917145 0.5 0.272533 0.73309
226 1 0.224473 0.283946 0.5 0.910657 0.179458
227 1 0.813479 0.393049 0.5 0.764094 -0.565198
228 1 0.0501321 0.205382 0.5 0.618457 0.390114
229 1 0.998907 0.420923 0.5 0.4897 -0.20629
230 1 0.173197 0.84695 0.5 -0.505984 0.407643
231 1 0.938717 0.377197 0.5 -0.951649 0.0107009
232 1 0.0552253 0.233628 0.5 0.61878 0.286474
233 1 0.747985 0.671821 0.5 0.071618 -0.629422
234 1 0.996303 0.460508 0.5 0.478227 -0.257574
235 1 0.997282 0.373588 0.5 -0.124919 0.497861
236 1 0.0994431 0.543459 0.5 0.527684 0.629874
237 1 0.322292 0.0211796 0.5 0.489751 0.226297
238 1 0.0170596 0.257612 0.5 -0.385248 0.65367
239 1 0.93143 0.228641 0.5 -0.0202891 -0.660084
240 1 0.334042 0.903858 0.5 0.623933 0.556535
241 1 0.1045 0.553864 0.5 0.204888 0.626354
242 1 0.749232 0.71828 0.5 0.572823 0.29855
243 1 0.903746 0.574328 0.5 0.875236 0.450449
244 1 0.0560443 0.338626 0.5 0.0457773 0.543076
245 1 0.224679 0.900083 0.5 -0.367706 0.498277
246 1 0.867649 0.624786 0.5 -0.588278 0.540047
247 1 0.963587 0.460873 0.5 0.689248 -0.528435
248 1 0.15061 0.269022 0.5 0.83756 0.0393798
249 1 0.336752 0.407066 0.5 -0.160918 -0.512577
250 1 0.0534497 0.455861 0.5 0.329112 -0.752289
251 1 0.0648407 0.357187 0.5 -0.139217 -0.316037
252 1 0.774287 0.461701 0.5 0.32532 -0.755389
253 1 0.277227 0.0241001 0.5 0.457593 -0.223512
254 1 0.13148 0.950514 0.5 -0.503423 -0.600907
255 1 0.402603 0.142674 0.5 -0.131494 -0.617788
256 1 0.054252 0.0444741 0.5 0.789069 -0.438281
257 1 0.899742 0.205579 0.5 0.0251279 0.832981
258 1 0.128214 0.539721 0.5 0.0433165 0.779589
259 1 0.955247 0.200524 0.5 -0.221508 -0.602112
260 1 0.189796 0.165269 0.5 0.932357 -0.293565
261 1 0.0362123 0.965009 0.5 0.453597 -0.0822256
262 1 0.159934 0.441499 0.5 0.180741 0.523764
263 1 0.195718 0.424314 0.5 0.721818 -0.2048
264 1 0.992628 0.16085 0.5 -0.0157101 0.910723
265 1 0.13943 0.553981 0.5 -0.0144298 0.828534
266 1 0.96809 0.283367 0.5 0.738365 -0.0680403
267 1 0.14716 0.130449 0.5 0.742742 0.245076
268 1 0.0143322 0.42734 0.5 -0.213545 -0.251964
269 1 0.163371 0.460757 0.5 -0.651435 0.349327
270 1 0.0157683 0.501818 0.5 -0.463093 -0.574279
271 1 0.0324626 0.374194 0.5 0.460048 0.595437
272 1 0.688774 0.393371 0.5 0.706121 -0.128602
273 1 0.0882201 0.539925 0.5 0.581542 0.290529
274 1 0.104595 0.241441 0.5 0.733187 0.266607
275 1 0.199795 0.165202 0.5 0.835365 0.0329709
276 1 0.260752 0.260305 0.5 0.839679 0.0933272
277 1 0.32837 0.331788 0.5 0.945034 0.0157451
278 1 0.0269432 0.624186 0.5 0.91438 -0.0707132
279 1 0.325026 0.100672 0.5 -0.511897 -0.298311
280 1 0.87368 0.184904 0.5 -0.608791 0.202424
281 1 0.866656 0.43225 0.5 0.784547 -0.20152
282 1 0.946989 0.471243 0.5 0.913585 -0.355306
283 1 0.892087 0.256374 0.5 0.781073 0.399417
284 1 0.112153 0.113118 0.5 0.69842 -0.531568
285 1 0.0408341 0.203202 0.5 0.727428 0.293692
286 1 0.279843 0.23734 0.5 0.238852 0.0241187
287 1 0.219646 0.53647 0.5 -0.357028 -0.178035
288 1 0.155069 0.658263 0.5 0.846765 0.212369
289 1 0.222756 0.455652 0.5 0.25359 -0.773352
290 1 0.0349557 0.282532 0.5 -0.576983 0.325785
291 1 0.792142 0.590607 0.5 0.0630569 -0.672441
292 1 0.363221 0.92484 0.5 0.697603 0.306845
293 1 0.930293 0.382391 0.5 -0.979705 -0.125736
294 1 0.00586588 0.282618 0.5 0.203063 0.799006
295 1 0.989658 0.540124 0.5 0.0179971 -0.329831
296 1 0.926781 0.556096 0.5 0.636815 0.321608
297 1 0.0640704 0.397148 0.5 0.394136 -0.243943
298 1 0.913537 0.833377 0.5 0.805654 -0.26374
299 1 0.991118 0.126084 0.5 0.582573 -0.643098
300 1 0.88095 0.376731 0.5 0.763731 -0.0287087
301 1 0.929228 0.30525 0.5 0.665892 -0.616508
302 1 0.912069 0.219833 0.5 -0.151219 0.0960056
303 1 0.080605 0.427437 0.5 0.193433 -0.932658
304 1 0.128405 0.80561 0.5 0.30299 -0.130191
305 1 0.0181016 0.404512 0.5 -0.356415 -0.357541
306 1 0.0192757 0.322938 0.5 0.680255 -0.0492605
307 1 0.171488 0.00750876 0.5 0.837195 -0.180137
308 1 0.947205 0.514286 0.5 0.157012 -0.184901
309 1 0.983297 0.0619707 0.5 0.357467 -0.905369
310 1 0.878815 0.357738 0.5 0.554206 -0.803185
311 1 0.0582989 0.8123 0.5 0.30631 -0.0754948
312 1 0.948522 0.361163 0.5 -0.77222 0.124025
313 1 0.0956715 0.296082 0.5 0.358819 0.116792
314 1 0.914173 0.456486 0.5 0.344021 -0.593478
315 1 0.850043 0.590731 0.5 0.167608 0.639542
316 1 0.293767 0.485718 0.5 0.63635 -0.0172176
317 1 0.932381 0.296273 0.5 0.657804 -0.64191
318 1 0.3753 0.417498 0.5 -0.557956 -0.243684
319 1 0.622501 0.216526 0.5 -0.127316 -0.876605
320 1 0.262987 0.539367 0.5 0.8064 -0.287017
321 1 0.976143 0.405658 0.5 0.0478165 0.0436386
322 1 0.390211 0.462417 0.5 0.276273 -0.191535
323 1 0.245293 0.458262 0.5 -0.157371 -0.073305
324 1 0.256238 0.549863 0.5 -0.031077 0.545433
325 1 0.396217 0.830459 0.5 -0.148176 0.72946
326 1 0.301822 0.439652 0.5 0.167924 -0.96991
327 1 0.273974 0.224749 0.5 0.731344 -0.249268
328 1 0.532472 0.323122 0.5 -0.514131 0.40446
329 1 0.211067 0.805291 0.5 -0.533309 0.285102
330 1 0.249484 0.423169 0.5 -0.0326665 -0.0324094
331 1 0.950541 0.570176 0.5 0.902729 0.118508
332 1 0.207839 0.645987 0.5 0.722779 0.43274
333 1 0.316953 0.540614 0.5 0.202939 -0.0118579
334 1 0.980122 0.479255 0.5 -0.402455 -0.322081
335 1 0.310844 0.548892 0.5 0.764343 -0.242068
336 1 0.186879 0.498054 0.5 0.25627 -0.337053
337 1 0.0116693 0.355471 0.5 -0.252348 0.285944
338 1 0.971624 0.442065 0.5 0.75182 -0.530796
339 1 0.332397 0.359664 0.5 0.18728 0.40005
340 1 0.0946866 0.514638 0.5 0.550391 -0.40729
341 1 0.300033 0.171101 0.5 0.504469 0.555121
342 1 0.198402 0.340616 0.5 0.942128 0.0546094
343 1 0.00262293 0.597985 0.5 0.280142 0.0537835
344 1 0.234471 0.674859 0.5 -0.282018 0.818398
345 1 0.263243 0.297158 0.5 0.909862 0.13852
346 1 0.290247 0.574349 0.5 -0.124764 0.211286
347 1 0.30635 0.39772 0.5 -0.231937 0.209559
348 1 0.055227 0.406325 0.5 -0.60712 0.642432
349 1 0.0414275 0.468075 0.5 -0.042992 -0.726355
350 1 0.88265 0.348524 0.5 0.786006 -0.532397
351 1 0.303008 0.411903 0.5 0.39337 -0.49184
352 1 0.0639738 0.42314 0.5 0.0258947 -0.794812
353 1 0.0546365 0.503071 0.5 -0.368024 -0.508207
354 1 0.919722 0.418796 0.5 0.686122 -0.323625
355 1 0.218406 0.54597 0.5 -0.364366 0.0975149
356 1 0.138039 0.5416 0.5 -0.256786 0.573878
357 1 0.954062 0.505624 0.5 0.581531 -0.100273
358 1 0.93146 0.446694 0.5 0.720549 -0.202376
359 1 0.183111 0.511795 0.5 0.00531454 0.00638196
360 1 0.427336 0.431599 0.5 0.600573 0.114157
361 1 0.137712 0.441339 0.5 0.149332 -0.299039
362 1 0.134685 0.24092 0.5 0.846553 -0.0616924
363 1 0.857215 0.559681 0.5 0.270029 0.0579134
364 1 0.0563364 0.416404 0.5 -0.400744 -0.260168
365 1 0.836473 0.564698 0.5 -0.039438 -0.712382
366 1 0.307865 0.388258 0.5 0.0287654 -0.563428
367 1 0.342539 0.377869 0.5 0.116788 -0.117216
368 1 0.186257 0.54248 0.5 0.465829 0.699483
369 1 0.126035 0.434675 0.5 -0.179978 -0.546514
370 1 0.277432 0.427521 0.5 0.0489388 -0.868199
371 1 0.00884074 0.291588 0.5 -0.0937002 0.630214
372 1 0.109219 0.327257 0.5 0.971721 0.126119
373 1 0.230698 0.484617 0.5 0.313822 -0.237677
374 1 0.407094 0.423483 0.5 0.135491 -0.135716
375 1 0.231887 0.150223 0.5 0.868865 0.113307
376 1 0.226426 0.445949 0.5 0.109146 -0.787754
377 1 0.369942 0.704251 0.5 -0.648391 0.0944333
378 1 0.317636 0.429746 0.5 -0.209226 0.223273
379 1 0.92996 0.391756 0.5 -0.728923 0.114943
380 1 0.920673 0.387546 0.5 -0.70516 0.227296
381 1 0.328954 0.348544 0.5 0.792016 0.116544
382 1 0.116304 0.437108 0.5 -0.117525 -0.918617
383 1 0.98443 0.509514 0.5 0.0735735 -0.796492
384 1 0.205375 0.676304 0.5 -0.359542 0.510937
385 1 0.272208 0.510375 0.5 0.0135627 0.0493592
386 1 0.249611 0.492076 0.5 0.710815 -0.122628
387 1 0.318358 0.583199 0.5 -0.226742 -0.277511
388 1 0.367127 0.422703 0.5 -0.610647 -0.00159413
389 1 0.237304 0.549877 0.5 0.542487 0.165111
390 1 0.352535 0.548329 0.5 -0.672304 -0.592466
391 1 0.0421719 0.596265 0.5 -0.0251626 0.528521
392 1 0.856846 0.506684 0.5 0.675921 -0.416439
393 1 0.0399908 0.74052 0.5 0.0110622 -0.461493
394 1 0.859266 0.62042 0.5 -0.60157 0.615454
395 1 0.493196 0.36968 0.5 0.753676 0.358656
396 1 0.172143 0.520006 0.5 -0.777624 0.461975
397 1 0.0921236 0.670998 0.5 0.215427 -0.597674
398 1 0.149766 0.668208 0.5 0.941313 0.0460145
399 1 0.85645 0.450931 0.5 0.861853 -0.20265
400 1 0.127124 0.683596 0.5 0.551457 0.145203
401 1 0.0226876 0.576773 0.5 0.531973 0.107457
402 1 0.450997 0.905067 0.5 0.285148 -0.517982
403 1 0.279247 0.325153 0.5 0.201277 -0.577755
404 1 0.834147 0.54721 0.5 -0.0832646 -0.450879
405 1 0.304195 0.899167 0.5 -0.574369 0.247867
406 1 0.0583738 0.493644 0.5 -0.339866 -0.404477
407 1 0.884194 0.537494 0.5 0.58268 -0.354318
408 1 0.393219 0.473022 0.5 -0.172434 0.250259
409 1 0.283933 0.486096 0.5 -0.517645 -0.382582
410 1 0.0874715 0.596053 0.5 0.548894 0.679986
411 1 0.87486 0.513245 0.5 0.0686815 -0.632436
412 1 0.86928 0.63479 0.5 0.0248271 0.350492
413 1 0.834226 0.537888 0.5 -0.0716109 -0.492053
414 1 0.260098 0.36292 0.5 0.514086 0.272708
415 1 0.214069 0.638207 0.5 0.0399388 0.835241
416 1 0.1285 0.712856 0.5 0.448347 -0.182156
417 1 0.280368 0.418046 0.5 0.246313 -0.621111
418 1 0.859561 0.424095 0.5 0.723177 -0.278142
419 1 0.906986 0.199053 0.5 0.216493 0.676621
420 1 0.936866 0.472022 0.5 0.86388 -0.261293
421 1 0.0261448 0.500933 0.5 -0.54704 -0.320854
422 1 0.265606 0.454196 0.5 0.41934 -0.879203
423 1 0.213277 0.430597 0.5 0.492182 -0.797492
424 1 0.465623 0.559899 0.5 0 0
425 1 0.0757452 0.613152 0.5 0.678678 0.330688
426 1 0.299963 0.234947 0.5 0.627366 -0.369715
427 1 0.366669 0.521171 0.5 -0.434787 -0.0598464
428 1 0.207209 0.777226 0.5 0.270733 -0.132796
429 1 0.154887 0.422627 0.5 0.410485 0.502775
430 1 0.417244 0.553258 0.5 0.628983 -0.421024
431 1 0.235413 0.569402 0.5 0.396092 -0.5956
432 1 0.154369 0.576972 0.5 -0.506094 0.408223
433 1 0.949889 0.399205 0.5 0.785761 -0.334156
434 1 0.248944 0.732086 0.5 -0.707109 -0.355385
435 1 0.461947 0.406516 0.5 0.758474 -0.408164
436 1 0.214934 0.403513 0.5 0.884167 0.114752
437 1 0.995272 0.640893 0.5 0.419621 0.0563623
438 1 0.197894 0.470599 0.5 0.0904895 -0.779257
439 1 0.713189 0.502965 0.5 0.440375 -0.214129
440 1 0.136513 0.498501 0.5 -0.179421 0.131958
441 1 0.380118 0.58611 0.5 0.407114 -0.596505
442 1 0.0685751 0.384764 0.5 0.298606 -0.573831
443 1 0.181595 0.559794 0.5 -0.214158 0.0811769
444 1 0.124519 0.65498 0.5 0.688036 0.571523
445 1 0.193587 0.635051 0.5 0.384098 0.798728
446 1 0.184076 0.601263 0.5 -0.295336 0.572678
447 1 0.276464 0.62956 0.5 -0.799462 0.165471
448 1 0.987527 0.662555 0.5 0.682684 0.25781
449 1 0.636035 0.412664 0.5 0.444646 -0.0324105
450 1 0.0938598 0.648753 0.5 -0.5434 0.654111
451 1 0.228478 0.312587 0.5 0.519512 0.675477
452 1 0.334575 0.442273 0.5 0.711292 0.362401
453 1 0.257315 0.00502148 0.5 0.66726 0.712101
454 1 0.19313 0.34936 0.5 0.872448 0.262662
455 1 0.894032 0.724253 0.5 -0.495686 -0.50719
456 1 0.257651 0.529493 0.5 0.797798 0.0331252
457 1 0.437541 0.451289 0.5 0.921648 -0.0778816
458 1 0.149945 0.440603 0.5 0.523398 0.243958
459 1 0.934967 0.498663 0.5 0.52863 -0.554288
460 1 0.359645 0.454035 0.5 0.87543 0.0618438
461 1 0.163196 0.593535 0.5 -0.308107 0.625968
462 1 0.253928 0.518008 0.5 0.411489 0.293103
463 1 0.0930313 0.894183 0.5 0.165707 0.855819
464 1 0.154004 0.466307 0.5 -0.831158 0.108129
465 1 0.884264 0.470249 0.5 0.697483 -0.220887
466 1 0.358914 0.656282 0.5 -0.403366 -0.803439
467 1 0.899279 0.420574 0.5 0.632627 -0.225776
468 1 0.182405 0.403562 0.5 0.459339 -0.441552
469 1 0.831132 0.708809 0.5 0.797914 0.186273
470 1 0.162839 0.471342 0.5 -0.95173 0.15367
471 1 0.0625423 0.452452 0.5 -0.0387583 -0.523245
472 1 0.477673 0.359761 0.5 0.641975 -0.286815
473 1 0.293115 0.225262 0.5 0 0
474 1 0.0857125 0.378054 0.5 0.232285 -0.505268
475 1 0.190444 0.585333 0.5 -0.701345 0.600815
476 1 0.376227 0.520631 0.5 -0.509541 -0.0563907
477 1 0.154178 0.486813 0.5 -0.852849 0.330016
478 1 0.173696 0.597839 0.5 -0.42423 0.713804
479 1 0.00585354 0.495619 0.5 -0.141026 -0.556845
480 1 0.11726 0.576295 0.5 0.334485 0.804608
481 1 0.289135 0.398988 0.5 -0.103761 0.492479
482 1 0.303151 0.511647 0.5 0.108892 -0.574964
483 1 0.387125 0.558022 0.5 0.0239525 0.0977526
484 1 0.29093 0.91352 0.5 -0.409884 -0.0821097
485 1 0.353933 0.395917 0.5 -0.678045 -0.564454
486 1 0.0394774 0.585962 0.5 0.550434 0.573127
487 1 0.911668 0.592896 0.5 0.586148 0.69084
488 1 0.147373 0.149504 0.5 0.623705 0.172931
489 1 0.561229 0.924773 0.5 0.505366 0.186124
490 1 0.376446 0.42682 0.5 0.133994 0.192985
491 1 0.0538077 0.513137 0.5 -0.537298 -0.296159
492 1 0.0706943 0.549125 0.5 0.90706 -0.048679
493 1 0.0293334 0.342942 0.5 0.394061 0.730715
494 1 0.0469428 0.829361 0.5 -0.754073 0.218433
495 1 0.0714622 0.373081 0.5 -0.292259 -0.68913
496 1 0.190296 0.489135 0.5 0.513143 -0.437976
497 1 0.176582 0.358436 0.5 0.751978 -0.115543
498 1 0.0591573 0.591565 0.5 -0.43223 0.237071
499 1 0.94661 0.499015 0.5 0.437548 -0.378598
500 1 0.339404 0.562608 0.5 0.0522309 -0.554298
501 1 0.0774952 0.593927 0.5 0.589139 0.231819
502 1 0.103744 0.449049 0.5 0.0263118 -0.874454
503 1 0.163485 0.50397 0.5 -0.788229 0.0341933
504 1 0.42938 0.896759 0.5 0.27959 0.424695
505 1 0.596458 0.316107 0.5 -0.436537 0.636105
506 1 0.263679 0.71007 0.5 0.559109 -0.467934
507 1 0.0555642 0.666504 0.5 0.91395 -0.286612
508 1 0.279152 0.530441 0.5 0.672068 0.153772
509 1 0.067562 0.574284 0.5 0.756272 0.0503744
510 1 0.110581 0.457184 0.5 0.0688718 -0.829486
511 1 0.209665 0.592324 0.5 -0.247832 0.930236
512 1 0.277693 0.698039 0.5 -0.0629405 0.0403072
513 1 0.88465 0.385427 0.5 0.704615 -0.353575
514 1 0.219982 0.713799 0.5 0.137679 0.43584
515 1 0.227643 0.623684 0.5 0.34363 0.719128
516 1 0.492447 0.966797 0.5 0.850075 -0.242142
517 1 0.214432 0.749358 0.5 0.267175 0.729968
518 1 0.146543 0.777817 0.5 -0.291874 0.123131
519 1 0.0211927 0.305188 0.5 0.652808 0.431315
520 1 0.0196554 0.528782 0.5 0.242498 -0.464697
521 1 0.801894 0.553648 0.5 0.477307 -0.598995
522 1 0.179241 0.659576 0.5 -0.015909 -0.0210369
523 1 0.226544 0.761417 0.5 -0.41511 -0.137061
524 1 0.0274005 0.605196 0.5 0.900146 -0.17417
525 1 0.825545 0.300032 0.5 0.445941 -0.20017
526 1 0.0485784 0.474575 0.5 -0.117534 -0.727683
527 1 0.332898 0.48815 0.5 0.579872 0.231745
528 1 0.350599 0.609873 0.5 -0.634454 0.412082
529 1 0.306964 0.558973 0.5 0.159566 0.0147641
530 1 0.0204994 0.443541 0.5 0.301682 -0.82684
531 1 0.113886 0.555594 0.5 0.114098 0.750916
532 1 0.095179 0.482071 0.5 -0.641795 -0.706063
533 1 0.42757 0.355215 0.5 0.432651 -0.0947518
534 1 0.413666 0.64486 0.5 -0.173583 0.0542181
535 1 0.170884 0.649731 0.5 0.873265 -0.014154
536 1 0.397752 0.57263 0.5 0.327674 -0.55384
537 1 0.0449619 0.647742 0.5 0.625078 -0.225229
538 1 0.878212 0.616199 0.5 -0.0857045 0.767647
539 1 0.277075 0.640104 0.5 -0.904716 0.160953
540 1 0.211772 0.601834 0.5 -0.251253 0.892908
541 1 0.171642 0.465699 0.5 -0.981009 0.146328
542 1 0.0248128 0.432446 0.5 -0.153899 -0.216369
543 1 0.331061 0.921539 0.5 0.381544 0.888611
544 1 0.997284 0.332572 0.5 -0.175041 0.318101
545 1 0.0921372 0.354431 0.5 0.0344387 0.499612
546 1 0.281972 0.459955 0.5 0.46747 -0.614708
547 1 0.89382 0.775634 0.5 0.426539 0.847878
548 1 0.355146 0.384368 0.5 -0.361159 0.126649
549 1 0.178446 0.570027 0.5 -0.116779 0.146739
550 1 0.398503 0.702724 0.5 0.217451 -0.847674
551 1 0.22524 0.348447 0.5 0.847913 0.0412572
552 1 0.988928 0.575928 0.5 0.656505 0.0763685
553 1 0.976233 0.352848 0.5 0.069263 -0.332918
554 1 0.349294 0.328348 0.5 0.0428962 -0.728254
555 1 0.236419 0.213271 0.5 0.768408 0.130278
556 1 0.287304 0.389636 0.5 -0.0477013 0.106269
557 1 0.164707 0.525957 0.5 -0.677097 0.312952
558 1 0.0753938 0.666599 0.5 0.321585 -0.35887
559 1 0.132395 0.489793 0.5 0.642098 0.217859
560 1 0.132021 0.423735 0.5 0.0761025 -0.360257
561 1 0.158063 0.390534 0.5 0.651062 -0.484654
562 1 0.22658 0.682797 0.5 -0.156133 0.830916
563 1 0.376095 0.669377 0.5 -0.600653 -0.354767
564 1 0.164001 0.398901 0.5 -0.14014 -0.719002
565 1 0.249535 0.639745 0.5 -0.167173 0.197703
566 1 0.109457 0.213611 0.5 0.8442 -0.0561098
567 1 0.385113 0.516116 0.5 -0.264301 0.224804
568 1 0.137343 0.581041 0.5 0.241945 0.890408
569 1 0.163466 0.481134 0.5 -0.849909 0.165396
570 1 0.212158 0.0529297 0.5 0.560898 -0.561181
571 1 0.383399 0.299372 0.5 -0.309015 -0.171684
572 1 0.241864 0.185148 0.5 0.501613 -0.218806
573 1 0.236524 0.47601 0.5 0.171865 -0.150952
574 1 0.460963 0.386481 0.5 0.882448 -0.285519
575 1 0.207073 0.620381 0.5 0.279179 0.511801
576 1 0.257662 0.794818 0.5 0.298214 -0.120935
577 1 0.994968 0.585567 0.5 0.291 -0.285356
578 1 0.174424 0.250316 0.5 0.791472 -0.318406
579 1 0.243519 0.538382 0.5 0.739995 0.145907
580 1 0.0796191 0.622473 0.5 0.187169 0.40845
581 1 0.464865 0.241377 0.5 -0.818956 0.435203
582 1 0.311588 0.823645 0.5 -0.0064621 0.726501
583 1 0.192038 0.285356 0.5 0.720455 -0.449721
584 1 0.00308662 0.741214 0.5 0.658476 -0.0678058
585 1 0.996015 0.497329 0.5 0.0631995 -0.834542
586 1 0.341954 0.634856 0.5 -0.950623 0.119922
587 1 0.132538 0.67505 0.5 0.647257 0.554058
588 1 0.0953217 0.37719 0.5 0.13448 -0.729589
589 1 0.104588 0.728686 0.5 0.839481 0.331783
590 1 0.0392701 0.486261 0.5 0.202581 -0.0537723
591 1 0.14546 0.766414 0.5 -0.281816 0.26189
592 1 0.0946064 0.551607 0.5 0.0545718 0.521592
593 1 0.196899 0.542649 0.5 0.210525 0.700804
594 1 0.404025 0.469241 0.5 0.442348 -0.549219
595 1 0.196194 0.480704 0.5 0.340024 -0.407501
596 1 0.123115 0.419368 0.5 -0.0683957 -0.415121
597 1 0.160464 0.668422 0.5 0.81458 -0.173606
598 1 0.964187 0.38819 0.5 0.621022 -0.61709
599 1 0.308676 0.349123 0.5 0.801341 -0.00485702
600 1 0.93514 0.410837 0.5 0.530012 -0.373061
601 1 0.984881 0.410403 0.5 -0.108248 0.311398
602 1 0.101201 0.600222 0.5 -0.67455 -0.252045
603 1 0.113256 0.652745 0.5 0.413908 0.301421
604 1 0.153699 0.52002 0.5 -0.832907 0.410723
605 1 0.394433 0.485045 0.5 -0.253407 0.620677
606 1 0.0722941 0.630591 0.5 -0.0189255 0.384247
607 1 0.526217 0.215483 0.5 0.0176218 -0.900543
608 1 0.0456286 0.402427 0.5 -0.774727 0.603614
609 1 0.111264 0.616582 0.5 0.208794 0.742789
610 1 0.104511 0.623013 0.5 -0.0245448 0.931012
611 1 0.272137 0.343331 0.5 0.813223 0.345495
612 1 0.805412 0.543152 0.5 0.510832 -0.740895
613 1 0.833272 0.371339 0.5 0.762794 -0.436567
614 1 0.930667 0.372406 0.5 -0.780377 0.146124
615 1 0.322953 0.52496 0.5 0.219483 0.357421
616 1 0.480074 0.341764 0.5 0.233301 0.0726804
617 1 0.0352465 0.53887 0.5 0.401386 0.33078
618 1 0.907592 0.583721 0.5 0.647189 0.643173
619 1 0.238915 0.528614 0.5 0.374444 -0.0641725
620 1 0.345422 0.338826 0.5 0.67641 -0.595534
621 1 0.988831 0.450652 0.5 0.540952 -0.364597
622 1 0.220704 0.411951 0.5 0.690642 -0.286992
623 1 0.217214 0.647742 0.5 -0.290284 0.264307
624 1 0.292709 0.413193 0.5 0.231922 -0.53101
625 1 0.129607 0.327531 0.5 0.562324 0.458733
626 1 0.939359 0.303932 0.5 0.48357 -0.833324
627 1 0.334632 0.542076 0.5 0.0695933 -0.153111
628 1 0.291181 0.684006 0.5 -0.608798 0.727662
629 1 0.279638 0.383484 0.5 -0.397714 0.222267
630 1 0.0778356 0.575422 0.5 0.741833 0.534951
631 1 0.42038 0.477526 0.5 0.963435 0.160642
632 1 0.963346 0.319629 0.5 0.700912 -0.604219
633 1 0.890061 0.457415 0.5 -0.248481 -0.0944905
634 1 0.0513041 0.54891 0.5 0.862708 -0.311883
635 1 0.822609 0.551664 0.5 0.169479 -0.612523
636 1 0.169291 0.612156 0.5 0.458617 -0.388832