ITEM: TIMESTEP
0
ITEM: NUMBER OF ATOMS
9891
ITEM: BOX BOUNDS pp pp pp
-5.8359999999999999e+01 5.8359999999999999e+01
-5.8359999999999999e+01 5.8359999999999999e+01
-5.0000000000000000e-01 5.0000000000000000e-01
ITEM: ATOMS id type xs ys zs c_002[1] c_002[2]
1 1 0.328495 0.0999054 0.5 0.110701 -0.605901
2 1 0.261101 0.0287235 0.5 -0.226872 0.687484
3 1 0.1437 0.397892 0.5 0.809134 0.374736
4 1 0.0548509 0.196347 0.5 0.724047 -0.428078
5 1 0.508819 0.264662 0.5 0.0508676 -0.370833
6 1 0.116177 0.73471 0.5 0.0848316 0.334618
7 1 0.761024 0.39604 0.5 0.320234 -0.341653
8 1 0.88477 0.291027 0.5 -0.714534 -0.424167
9 1 0.969622 0.217733 0.5 -0.389807 0.305544
10 1 0.00674628 0.39442 0.5 0.272983 -0.206791
11 1 0.83444 0.165131 0.5 -0.24072 -0.765399
12 1 0.266327 0.280404 0.5 0.49124 0.325176
13 1 0.115805 0.0931969 0.5 0.258429 0.913626
14 1 0.29333 0.00667209 0.5 0.0883939 0.937454
15 1 0.00237148 0.201434 0.5 0.247844 -0.364042
16 1 0.258911 0.440806 0.5 -0.291001 -0.383861
17 1 0.9605 0.190753 0.5 -0.864555 -0.425637
18 1 0.0651068 0.115433 0.5 -0.709497 0.432147
19 1 0.0689475 0.367068 0.5 -0.0179365 -0.361621
20 1 0.0873516 0.275033 0.5 0.0930183 0.44529
21 1 0.239051 0.503091 0.5 0.766152 0.218656
22 1 0.682884 0.632949 0.5 -0.408789 0.284851
23 1 0.311055 0.170102 0.5 0.0864351 0.44758
24 1 0.830376 0.347483 0.5 0.563354 0.775518
25 1 0.434436 0.0692403 0.5 -0.265962 0.574059
26 1 0.174449 0.138234 0.5 0.806745 0.35101
27 1 0.0884522 0.367424 0.5 0.146862 0.927036
28 1 0.239686 0.484342 0.5 0.0918136 0.758485
29 1 0.916629 0.278908 0.5 -0.0631674 -0.599665
30 1 0.199562 0.278463 0.5 0.410358 -0.404032
31 1 0.307304 0.55109 0.5 0.862414 0.371225
32 1 0.449471 0.841853 0.5 0.174704 0.0891331
33 1 0.107095 0.16964 0.5 0.121041 0.273126
34 1 0.768937 0.623026 0.5 -0.39137 0.646296
35 1 0.0410749 0.0129985 0.5 0.0822191 0.910894
36 1 0.259942 0.0656257 0.5 -0.780257 0.296806
37 1 0.128057 0.200011 0.5 0.311221 0.77445
38 1 0.0905251 0.504807 0.5 0.516407 0.164238
39 1 0.32211 0.561626 0.5 0.876917 0.27872
40 1 0.992542 0.123639 0.5 -0.0375849 0.797143
41 1 0.646269 0.352374 0.5 0.625678 0.168612
42 1 0.193312 0.389197 0.5 -0.840871 0.380979
43 1 0.0480269 0.234548 0.5 -0.673406 0.446154
44 1 0.308981 0.533872 0.5 0.889531 0.279499
45 1 0.87891 0.41242 0.5 0.929842 0.267005
46 1 0.94451 0.547143 0.5 -0.687301 -0.598702
47 1 0.106975 0.551055 0.5 -0.604851 0.10605
48 1 0.41877 0.0484045 0.5 0.247532 0.580209
49 1 0.00930095 0.162356 0.5 -0.222415 -0.824054
50 1 0.983228 0.25529 0.5 -0.215788 0.77425
51 1 0.925706 0.122859 0.5 -0.741202 0.437061
52 1 0.00207265 0.0983611 0.5 -0.00216086 0.685253
53 1 0.0451087 0.457704 0.5 -0.755026 0.25796
54 1 0.165592 0.453886 0.5 -0.0423336 -0.638827
55 1 0.899079 0.351058 0.5 0.587262 0.24689
56 1 0.265397 0.362939 0.5 0.930453 -0.261437
57 1 0.00215302 0.531077 0.5 0.77199 0.1704
58 1 0.622773 0.52894 0.5 -0.543389 0.0127121
59 1 0.324046 0.972119 0.5 0.661506 0.157661
60 1 0.369243 0.14201 0.5 0.581384 -0.561065
61 1 0.243169 0.370279 0.5 -0.395422 -0.350281
62 1 0.924777 0.458531 0.5 0.00250473 0.309293
63 1 0.886198 0.138839 0.5 0.320044 0.795995
64 1 0.897037 0.194228 0.5 -0.513925 0.172082
65 1 0.994693 0.99476 0.5 -0.0541181 0.265032
66 1 0.238076 0.956463 0.5 0.744259 0.60897
67 1 0.585174 0.66806 0.5 -0.335666 -0.791465
68 1 0.214728 0.176996 0.5 0.256019 0.790136
69 1 0.32744 0.12824 0.5 -0.164089 -0.163158
70 1 0.875459 0.333472 0.5 0.278087 -0.706656
71 1 0.0642205 0.38426 0.5 0.367886 0.135644
72 1 0.970815 0.131422 0.5 0.173926 0.461358
73 1 0.981337 0.402174 0.5 0.161925 0.607137
74 1 0.163638 0.0850904 0.5 -0.21584 0.80826
75 1 0.00904752 0.644099 0.5 -0.75507 0.39808
76 1 0.0748062 0.254101 0.5 -0.134869 -0.578453
77 1 0.0961112 0.127138 0.5 -0.23106 0.674872
78 1 0.980361 0.217355 0.5 -0.405238 0.310715
79 1 0.939131 0.345397 0.5 0.0579441 -0.398045
80 1 0.313984 0.0132202 0.5 -0.461592 0.826364
81 1 0.389485 0.0267594 0.5 -0.0193944 0.0191868
82 1 0.847257 0.615796 0.5 0.894219 0.0979434
83 1 0.0290478 0.142209 0.5 0.414658 0.763436
84 1 0.973812 0.263298 0.5 -0.134506 0.607992
85 1 0.17653 0.177163 0.5 -0.322661 0.848838
86 1 0.913009 0.218067 0.5 -0.721653 0.288975
87 1 0.212373 0.603502 0.5 0.424208 0.829475
88 1 0.0214472 0.383989 0.5 0.618103 -0.587776
89 1 0.196964 0.609169 0.5 0.684088 0.470103
90 1 0.899272 0.413747 0.5 0.860675 0.243517
91 1 0.952088 0.249287 0.5 0.434606 0.357322
92 1 0.757876 0.600461 0.5 -0.535434 0.626028
93 1 0.0907653 0.333349 0.5 0.432828 -0.46248
94 1 0.358521 0.534981 0.5 0.630477 -0.218891
95 1 0.611224 0.298457 0.5 0.2534 -0.379665
96 1 0.213994 0.486472 0.5 0.280132 0.772309
97 1 0.0694456 0.214649 0.5 -0.619577 -0.772938
98 1 0.613952 0.40877 0.5 -0.390647 0.0577725
99 1 0.206012 0.0383921 0.5 -0.500752 0.752947
100 1 0.198584 0.222136 0.5 -0.305149 0.0774554
101 1 0.906568 0.573202 0.5 -0.28525 -0.454231
102 1 0.72859 0.39936 0.5 0.293676 -0.343374
103 1 0.0554676 0.30097 0.5 0.0715319 0.154559
104 1 0.76142 0.828532 0.5 -0.690418 -0.209282
105 1 0.726858 0.119187 0.5 -0.478608 0.0853607
106 1 0.178387 0.247854 0.5 -0.335779 -0.51904
107 1 0.24259 0.206102 0.5 0.41687 -0.137583
108 1 0.407242 0.466253 0.5 0.714113 -0.229171
109 1 0.208998 0.0602157 0.5 0.0737139 0.881713
110 1 0.147766 0.449278 0.5 -0.292002 -0.351531
111 1 0.123667 0.19075 0.5 0.744278 0.595665
112 1 0.736591 0.655089 0.5 -0.489712 0.419775
113 1 0.411554 0.437885 0.5 0.914945 0.199392
114 1 0.905806 0.60177 0.5 -0.453294 -0.0762917
115 1 0.0615977 0.572833 0.5 -0.112658 -0.178816
116 1 0.349803 0.0822933 0.5 0.352183 -0.322739
117 1 0.149884 0.188043 0.5 0.0546484 0.78247
118 1 0.933935 0.194412 0.5 -0.849752 0.00294109
119 1 0.165957 0.172012 0.5 0.0219009 0.52574
120 1 0.824226 0.459473 0.5 0.67471 -0.298476
121 1 0.934481 0.335127 0.5 -0.221683 -0.244689
122 1 0.128452 0.614961 0.5 -0.496254 -0.371521
123 1 0.0669832 0.331621 0.5 0.712015 0.196267
124 1 0.421571 0.26028 0.5 0.613705 0.694004
125 1 0.148863 0.485242 0.5 -0.0101304 -0.247585
126 1 0.341184 0.0483606 0.5 -0.228397 0.907869
127 1 0.135153 0.126782 0.5 -0.290496 0.405598
128 1 0.77167 0.117224 0.5 0.852199 -0.308827
129 1 0.0866441 0.425499 0.5 -0.429734 0.530373
130 1 0.0242177 0.319536 0.5 0.588114 -0.730096
131 1 0.344759 0.627731 0.5 0.538811 0.5566
132 1 0.0713625 0.0981386 0.5 0.250092 0.911887
133 1 0.00304 0.128482 0.5 0.0830338 0.633362
134 1 0.234992 0.240018 0.5 -0.0676374 0.384969
135 1 0.839216 0.271718 0.5 -0.459704 -0.602478
136 1 0.0814047 0.527129 0.5 -0.0446788 -0.563746
137 1 0.821619 0.421268 0.5 0.191581 -0.0366505
138 1 0.493182 0.621194 0.5 0.762578 -0.125441
139 1 0.922657 0.475781 0.5 -0.142645 0.297279
140 1 0.314006 0.507488 0.5 0.793439 0.268263
141 1 0.970833 0.531495 0.5 -0.35731 -0.370157
142 1 0.820041 0.288258 0.5 0.561569 0.300528
143 1 0.905661 0.403346 0.5 0.385445 -0.104888
144 1 0.141006 0.994396 0.5 0.968644 0.0125444
145 1 0.939215 0.937664 0.5 0.617485 0.415209
146 1 0.213689 0.141553 0.5 0.0848497 0.109709
147 1 0.659564 0.660953 0.5 -0.00951545 0.386416
148 1 0.981492 0.13278 0.5 0.205442 0.58246
149 1 0.0935051 0.96712 0.5 0.5811 0.581937
150 1 0.0155678 0.431528 0.5 -0.850041 -0.315787
151 1 0.069509 0.440674 0.5 -0.470887 -0.039535
152 1 0.115895 0.448999 0.5 -0.400611 0.359111
153 1 0.0543508 0.463342 0.5 -0.938029 0.251137
154 1 0.00631945 0.956156 0.5 0.479665 0.661603
155 1 0.162101 0.438634 0.5 0.0112431 -0.266229
156 1 0.0472079 0.244208 0.5 -0.67303 0.210501
157 1 0.221641 0.0725062 0.5 0.685846 0.594272
158 1 0.142396 0.279489 0.5 -0.12255 0.445284
159 1 0.884397 0.402028 0.5 0.792286 -0.0388181
160 1 0.997242 0.399019 0.5 -0.345912 0.20323
161 1 0.349751 0.163492 0.5 0.325179 -0.584109
162 1 0.124796 0.122173 0.5 -0.0298972 0.766217
163 1 0.158075 0.343763 0.5 0.752628 0.588165
164 1 0.232882 0.463406 0.5 0.241266 0.802637
165 1 0.304801 0.177776 0.5 1.39505e-05 0.374702
166 1 0.95718 0.447737 0.5 -0.91858 0.0894107
167 1 0.1866 0.678852 0.5 0.455475 0.726656
168 1 0.0893258 0.180161 0.5 0.0413239 0.104623
169 1 0.0124404 0.14993 0.5 0.33751 0.0452347
170 1 0.245509 0.0038286 0.5 0.372365 0.593112
171 1 0.103635 0.156187 0.5 0.100473 0.916097
172 1 0.0806976 0.503044 0.5 0.0906253 0.381017
173 1 0.0201694 0.221859 0.5 -0.690869 0.517777
174 1 0.880636 0.586269 0.5 0.171888 -0.387508
175 1 0.859965 0.317255 0.5 -0.161453 0.162756
176 1 0.768713 0.340104 0.5 0.606423 0.174879
177 1 0.12496 0.256166 0.5 0.404825 0.650806
178 1 0.0910891 0.563364 0.5 -0.677269 -0.0764915
179 1 0.00971819 0.413033 0.5 -0.441954 -0.184177
180 1 0.790487 0.285147 0.5 0.36426 0.215003
181 1 0.300554 0.423619 0.5 0.480867 0.19662
182 1 0.955782 0.483148 0.5 -0.263191 -0.0732768
183 1 0.97643 0.422109 0.5 0.152645 0.680636
184 1 0.13663 0.985887 0.5 0.521163 0.52773
185 1 0.856033 0.277725 0.5 -0.00860479 0.313353
186 1 0.0604007 0.207907 0.5 -0.117119 -0.190531
187 1 0.225873 0.126532 0.5 -0.449967 -0.268886
188 1 0.27697 0.106726 0.5 0.0534604 0.424556
189 1 0.0329219 0.784394 0.5 0.467018 0.766394
190 1 0.108767 0.456914 0.5 0.0639328 0.920441
191 1 0.0694435 0.284471 0.5 -0.0226099 -0.646336
192 1 0.391811 0.474753 0.5 0.861827 -0.18275
193 1 0.885601 0.331119 0.5 0.397457 -0.785262
194 1 0.181683 0.0905394 0.5 -0.086501 0.273461
195 1 0.9037 0.180719 0.5 -0.415535 0.311607
196 1 0.228175 0.417827 0.5 0.474183 0.804945
197 1 0.15097 0.529041 0.5 0.310349 -0.11206
198 1 0.114045 0.504773 0.5 -0.225012 0.633594
199 1 0.99535 0.272078 0.5 -0.326647 0.221009
200 1 0.159053 0.866276 0.5 -0.00181795 0.721824
201 1 0.929665 0.29325 0.5 0.724142 -0.501853
202 1 0.658993 0.716697 0.5 -0.204701 0.831237
203 1 0.0880998 0.458901 0.5 -0.491972 0.0952048
204 1 0.0506823 0.624379 0.5 -0.844826 0.125593
205 1 0.323923 0.526337 0.5 0.927847 0.231142
206 1 0.137729 0.431602 0.5 0.000322002 -0.106011
207 1 0.704024 0.541053 0.5 -0.293933 0.161885
208 1 0.7631 0.386022 0.5 0.232748 -0.751137
209 1 0.111541 0.256334 0.5 -0.139344 0.0791199
210 1 0.401658 0.100599 0.5 0.168137 0.196391
211 1 0.281703 0.0702988 0.5 0.280307 0.481777
212 1 0.0232805 0.550853 0.5 0.142236 0.495812
213 1 0.858934 0.655699 0.5 -0.0579838 0.888979
214 1 0.592366 0.675345 0.5 -0.630829 -0.559595
215 1 0.146787 0.656136 0.5 0.199866 -0.168878
216 1 0.2412 0.625609 0.5 0.706414 0.497358
217 1 0.906755 0.497277 0.5 -0.723535 0.307558
218 1 0.184507 0.405691 0.5 -0.344493 0.456623
219 1 0.0110587 0.283241 0.5 0.776012 -0.295827
220 1 0.00513637 0.378769 0.5 0.22218 -0.753032
221 1 0.884736 0.449666 0.5 -0.465694 -0.56671
222 1 0.984886 0.104619 0.5 0.445249 0.822297
223 1 0.18045 0.0504214 0.5 -0.0579951 0.897469
224 1 0.726697 0.27676 0.5 0.8709 0.107492
225 1 0.346736 0.0314832 0.5 -0.41274 0.819433
226 1 0.0961384 0.163818 0.5 -0.162503 0.818061
227 1 0.851904 0.380687 0.5 0.789308 0.0542954
228 1 0.947733 0.275085 0.5 0.262768 -0.14602
229 1 0.880194 0.431506 0.5 0.82992 -0.157002
230 1 0.231812 0.964282 0.5 0.626489 0.335644
231 1 0.0642688 0.29409 0.5 -0.12246 -0.196833
232 1 0.0968277 0.225595 0.5 0.797363 -0.100535
233 1 0.62236 0.630063 0.5 0.263188 0.0730533
234 1 0.0192985 0.486319 0.5 -0.487469 0.644841
235 1 0.0814596 0.466301 0.5 -0.515196 0.694707
236 1 0.102774 0.577989 0.5 -0.827724 0.301155
237 1 0.196381 0.0242868 0.5 -0.0850738 0.785454
238 1 0.0747776 0.193113 0.5 0.340522 -0.828048
239 1 0.869288 0.258097 0.5 -0.429603 0.433439
240 1 0.374907 0.910175 0.5 0.734791 0.6153
241 1 0.152757 0.599349 0.5 0.536134 -0.516544
242 1 0.741532 0.755439 0.5 0.633255 0.300704
243 1 0.851929 0.425796 0.5 -0.257785 -0.081705
244 1 0.106383 0.298215 0.5 -0.0741685 -0.185114
245 1 0.221876 0.782788 0.5 0.665926 -0.243206
246 1 0.920314 0.596429 0.5 0.0436175 -0.699303
247 1 0.0991062 0.454724 0.5 -0.413146 0.174164
248 1 0.171375 0.118882 0.5 0.0101919 -0.0770861
249 1 0.230822 0.480395 0.5 0.34088 0.657796
250 1 0.106647 0.445872 0.5 -0.414714 0.554409
251 1 0.143626 0.379305 0.5 0.704574 0.375049
252 1 0.883536 0.42231 0.5 0.832798 0.049797
253 1 0.226482 0.150416 0.5 0.12171 0.769861
254 1 0.0966162 0.0867141 0.5 -0.483624 0.774859
255 1 0.413088 0.240337 0.5 0.867831 0.361708
256 1 0.923636 0.190437 0.5 -0.862044 0.357974
257 1 0.884075 0.383741 0.5 0.938104 0.23561
258 1 0.0607178 0.606704 0.5 -0.627422 -0.0960788
259 1 0.840825 0.261796 0.5 -0.791923 -0.554766
260 1 0.14935 0.0635778 0.5 -0.180994 -0.63213
261 1 0.118907 0.893264 0.5 -0.219104 0.375063
262 1 0.104657 0.472909 0.5 -0.168428 0.29139
263 1 0.0776724 0.536062 0.5 -0.107988 -0.289488
264 1 0.852188 0.12973 0.5 0.547996 -0.469801
265 1 0.334902 0.646781 0.5 0.528698 0.37694
266 1 0.882913 0.342045 0.5 -0.166637 -0.837863
267 1 0.178194 0.953543 0.5 0.220228 0.614255
268 1 0.928795 0.427405 0.5 -0.441125 -0.0666848
269 1 0.183033 0.48238 0.5 0.551611 0.775489
270 1 0.989661 0.496091 0.5 -0.598943 -0.207278
271 1 0.974766 0.436556 0.5 -0.658221 -0.598777
272 1 0.61864 0.400554 0.5 -0.307121 0.324127
273 1 0.198779 0.518504 0.5 -0.0330629 -0.107795
274 1 0.098106 0.172972 0.5 -0.366866 0.55745
275 1 0.0940356 0.0384615 0.5 -0.396863 0.428918
276 1 0.262594 0.410684 0.5 0.272856 -0.74755
277 1 0.305586 0.319779 0.5 0.201862 0.238719
278 1 0.168723 0.641294 0.5 0.259933 0.652775
279 1 0.425242 0.166977 0.5 0.772066 0.231317
280 1 0.872692 0.315163 0.5 0.0283626 -0.963082
281 1 0.0178862 0.462625 0.5 -0.775865 0.275388
282 1 0.0103592 0.663477 0.5 -0.364985 0.0156716
283 1 0.74018 0.267261 0.5 0.528934 -0.0782218
284 1 0.956034 0.269703 0.5 -0.832211 0.151815
285 1 0.991075 0.364045 0.5 0.646261 -0.589935
286 1 0.215283 0.251962 0.5 -0.51609 -0.160047
287 1 0.422492 0.642161 0.5 0.882194 -0.14332
288 1 0.126988 0.708015 0.5 0.549632 0.337119
289 1 0.238956 0.446639 0.5 0.411556 0.380511
290 1 0.130555 0.35155 0.5 0.484808 0.535975
291 1 0.810148 0.675445 0.5 0.0173512 0.946527
292 1 0.410884 0.09425 0.5 0.177923 0.57737
293 1 0.134489 0.422721 0.5 0.298708 0.595986
294 1 0.964475 0.234354 0.5 0.549794 0.708845
295 1 0.915832 0.440246 0.5 0.712024 -0.451227
296 1 0.0340883 0.439016 0.5 -0.328611 0.110525
297 1 0.138679 0.452762 0.5 0.214934 -0.574729
298 1 0.862472 0.83243 0.5 -0.798189 0.572451
299 1 0.935754 0.240134 0.5 0.351316 0.092818
300 1 0.732589 0.324572 0.5 -0.166118 0.924309
301 1 0.0211838 0.253824 0.5 -0.903701 0.336766
302 1 0.875346 0.11895 0.5 0.740625 -0.610885
303 1 0.164457 0.464374 0.5 0.17979 -0.733964
304 1 0.183064 0.810727 0.5 0.724011 -0.528572
305 1 0.188357 0.45233 0.5 -0.406673 -0.375804
306 1 0.0737629 0.324737 0.5 0.7728 0.156414
307 1 0.244644 0.0297398 0.5 -0.276682 0.379177
308 1 0.00912421 0.459512 0.5 -0.709144 0.244943
309 1 0.886737 0.23575 0.5 -0.94793 0.0116944
310 1 0.943341 0.320524 0.5 -0.141461 0.300648
311 1 0.0892789 0.899184 0.5 0.368879 0.267507
312 1 0.964913 0.409599 0.5 0.0158939 0.890655
313 1 0.0858844 0.341634 0.5 0.72671 0.00226726
314 1 0.0537479 0.578737 0.5 -0.360841 0.309368
315 1 0.966478 0.606057 0.5 -0.171243 0.588435
316 1 0.430943 0.659666 0.5 0.474872 0.346227
317 1 0.956837 0.375926 0.5 0.394283 -0.39348
318 1 0.307217 0.579618 0.5 0.460409 0.543269
319 1 0.652021 0.220316 0.5 0.808422 0.137247
320 1 0.326495 0.692932 0.5 0.708114 0.143279
321 1 0.922408 0.447768 0.5 0.0812364 -0.253967
322 1 0.364886 0.462142 0.5 0.540156 -0.000287351
323 1 0.288716 0.415922 0.5 0.0776665 -0.697885
324 1 0.336988 0.575566 0.5 0.286229 0.101169
325 1 0.352165 0.892657 0.5 0.380714 0.850387
326 1 0.2833 0.382798 0.5 0.127393 0.132024
327 1 0.293087 0.289184 0.5 0.741778 0.273235
328 1 0.600777 0.298614 0.5 0.277494 -0.53155
329 1 0.231342 0.783452 0.5 0.818933 0.40565
330 1 0.20192 0.384054 0.5 -0.133534 0.188995
331 1 0.0364748 0.658326 0.5 -0.75013 0.288884
332 1 0.273479 0.767644 0.5 0.92769 0.0319692
333 1 0.412304 0.474449 0.5 0.806447 -0.298184
334 1 0.0633426 0.432386 0.5 0.25486 -0.620856
335 1 0.41729 0.63354 0.5 0.854067 -0.209911
336 1 0.330531 0.582399 0.5 0.658271 0.282511
337 1 0.0916717 0.349095 0.5 0.634628 0.347529
338 1 0.0808595 0.433962 0.5 -0.331011 0.186749
339 1 0.320836 0.423537 0.5 0.337092 0.470198
340 1 0.22213 0.604496 0.5 0.441647 0.773652
341 1 0.296294 0.30075 0.5 0.594917 0.482179
342 1 0.093271 0.320214 0.5 0.195165 -0.211432
343 1 0.192665 0.536458 0.5 0.657083 -0.675877
344 1 0.257418 0.635091 0.5 0.887315 -0.0524793
345 1 0.263844 0.207837 0.5 0.7182 0.483587
346 1 0.294211 0.749292 0.5 0.77482 -0.267399
347 1 0.0533681 0.451804 0.5 -0.819047 0.276958
348 1 0.10157 0.349779 0.5 0.483448 0.0904829
349 1 0.277146 0.557882 0.5 0.6972 0.308966
350 1 0.9951 0.416933 0.5 -0.0278503 0.590039
351 1 0.251234 0.41301 0.5 -0.0720519 -0.782042
352 1 0.100578 0.56847 0.5 -0.758763 0.422297
353 1 0.0992534 0.464837 0.5 -0.300268 0.257716
354 1 0.924379 0.495181 0.5 -0.214929 0.859701
355 1 0.218585 0.765329 0.5 0.811949 -0.432553
356 1 0.142086 0.491755 0.5 -0.314747 0.0108605
357 1 0.137603 0.592632 0.5 0.465422 -0.310051
358 1 0.891314 0.479738 0.5 0.00412576 0.409565
359 1 0.251954 0.747751 0.5 0.776732 0.213605
360 1 0.407716 0.50199 0.5 0.574773 -0.62209
361 1 0.120688 0.528135 0.5 0.532904 -0.0815117
362 1 0.183374 0.170436 0.5 0.0572464 0.837162
363 1 0.0360374 0.667965 0.5 -0.304763 0.0930331
364 1 0.928448 0.468061 0.5 0.397971 0.702946
365 1 0.980086 0.640968 0.5 -0.503764 0.782752
366 1 0.169283 0.372409 0.5 0.388348 0.494197
367 1 0.339958 0.515829 0.5 0.594153 0.369588
368 1 0.109025 0.687302 0.5 -0.695045 0.424122
369 1 0.233311 0.606506 0.5 0.576426 0.746004
370 1 0.348785 0.472597 0.5 0.788257 -0.264897
371 1 0.0735704 0.356067 0.5 0.554684 -0.283979
372 1 0.154376 0.511732 0.5 0.830366 0.428335
373 1 0.191031 0.500758 0.5 0.566595 0.713409
374 1 0.402492 0.49397 0.5 0.761644 -0.194745
375 1 0.290992 0.0624542 0.5 -0.382509 0.792196
376 1 0.25979 0.42114 0.5 0.410456 -0.473507
377 1 0.398592 0.80605 0.5 0.630862 0.188578
378 1 0.288518 0.515533 0.5 0.739848 0.536176
379 1 0.936977 0.354618 0.5 0.270111 -0.893269
380 1 0.694706 0.297511 0.5 0.817448 0.12478
381 1 0.178019 0.346324 0.5 0.550518 0.722695
382 1 0.0811396 0.374758 0.5 0.289419 0.491508
383 1 0.0326712 0.573572 0.5 0.663714 0.116608
384 1 0.176015 0.746545 0.5 0.489902 0.508624
385 1 0.294168 0.611981 0.5 0.789306 -0.0743517
386 1 0.291802 0.479766 0.5 0.859858 -0.0813738
387 1 0.433991 0.603398 0.5 0.632922 0.660174
388 1 0.251687 0.375725 0.5 -0.899995 -0.278756
389 1 0.368154 0.656986 0.5 0.897993 0.347256
390 1 0.403778 0.60502 0.5 0.753609 0.122224
391 1 0.0983826 0.664054 0.5 -0.357899 0.460932
392 1 0.933509 0.573028 0.5 -0.71528 -0.266036
393 1 0.0856628 0.764081 0.5 0.459335 0.466437
394 1 0.940471 0.593575 0.5 0.39971 0.352934
395 1 0.705092 0.472795 0.5 0.66304 -0.146375
396 1 0.303381 0.54183 0.5 0.795832 0.064433
397 1 0.200333 0.619405 0.5 0.128858 0.882534
398 1 0.0457438 0.835613 0.5 -0.0782169 0.13129
399 1 0.914297 0.380987 0.5 0.879456 0.307083
400 1 0.107671 0.716796 0.5 0.348649 0.627422
401 1 0.0916128 0.60366 0.5 -0.188968 -0.897061
402 1 0.563282 0.921338 0.5 0.552903 0.749727
403 1 0.146581 0.205524 0.5 0.108446 0.933447
404 1 0.878804 0.617401 0.5 0.23307 0.125521
405 1 0.143608 0.909152 0.5 0.268584 0.736195
406 1 0.122528 0.497209 0.5 -0.116376 0.154268
407 1 0.984163 0.575782 0.5 0.243887 0.632876
408 1 0.403238 0.567639 0.5 0.509413 0.0373367
409 1 0.381264 0.687584 0.5 0.744986 -0.19012
410 1 0.0451233 0.55854 0.5 0.308335 0.711686
411 1 0.892195 0.456063 0.5 -0.540328 -0.821558
412 1 0.851225 0.723648 0.5 -0.0870274 -0.0313137
413 1 0.934025 0.560655 0.5 -0.645751 -0.403001
414 1 0.253101 0.433203 0.5 -0.138654 -0.171296
415 1 0.230472 0.802506 0.5 0.772292 0.23332
416 1 0.0865704 0.737184 0.5 -0.376008 0.614226
417 1 0.24852 0.477009 0.5 -0.350276 0.353935
418 1 0.908305 0.274288 0.5 -0.157152 0.412442
419 1 0.937196 0.135893 0.5 -0.661644 0.359296
420 1 0.0101005 0.502442 0.5 -0.221373 -0.113921
421 1 0.963997 0.490012 0.5 -0.208814 -0.421851
422 1 0.340168 0.413687 0.5 0.470875 0.259367
423 1 0.227218 0.470838 0.5 0.767198 0.529048
424 1 0.309266 0.515961 0.5 0.971895 0.0102584
425 1 0.0433709 0.651406 0.5 -0.707337 0.505815
426 1 0.339352 0.281648 0.5 0.656624 0.251906
427 1 0.42071 0.518375 0.5 0.801279 -0.338801
428 1 0.191809 0.857209 0.5 -0.608637 0.549071
429 1 0.0545278 0.531461 0.5 0.0753436 0.904809
430 1 0.404555 0.743815 0.5 0.824053 -0.0712692
431 1 0.363155 0.665753 0.5 0.886178 0.148252
432 1 0.243893 0.588859 0.5 0.895185 -0.0520103
433 1 0.0365786 0.335541 0.5 0.0376154 0.0106814
434 1 0.192868 0.754889 0.5 0.824449 -0.20232
435 1 0.430077 0.429469 0.5 0.844255 0.00636901
436 1 0.189377 0.442037 0.5 0.0414603 -0.711929
437 1 0.0644888 0.534715 0.5 0.152442 0.786731
438 1 0.217537 0.470487 0.5 0.677986 0.596531
439 1 0.751733 0.415318 0.5 0.84456 -0.274307
440 1 0.367376 0.696095 0.5 0.924368 0.0733231
441 1 0.305453 0.488478 0.5 0.901176 -0.255941
442 1 0.14415 0.438759 0.5 -0.128772 -0.465036
443 1 0.245812 0.671388 0.5 -0.391284 0.102488
444 1 0.205153 0.64756 0.5 0.150716 0.267611
445 1 0.0991491 0.777513 0.5 0.448448 0.73789
446 1 0.245408 0.69849 0.5 0.303614 0.446658
447 1 0.339326 0.637981 0.5 0.53932 -0.00268632
448 1 0.842156 0.607538 0.5 0.787879 -0.027946
449 1 0.641198 0.53122 0.5 -0.698319 0.103525
450 1 0.169017 0.614197 0.5 0.36678 0.125695
451 1 0.121273 0.311225 0.5 0.379542 0.709384
452 1 0.304312 0.507651 0.5 0.804434 0.293198
453 1 0.343665 0.0584884 0.5 -0.455319 0.820826
454 1 0.143038 0.194889 0.5 0.0304487 0.899123
455 1 0.81939 0.70533 0.5 0.509647 0.617515
456 1 0.364341 0.64774 0.5 0.71038 0.65161
457 1 0.49964 0.420687 0.5 0.643395 -0.57316
458 1 0.0281789 0.536525 0.5 0.512264 -0.209812
459 1 0.0220227 0.529043 0.5 0.449494 -0.283088
460 1 0.257993 0.474089 0.5 -0.679271 0.310355
461 1 0.181003 0.642894 0.5 0.00742266 0.554591
462 1 0.274318 0.628178 0.5 0.567384 0.19603
463 1 0.00646536 0.871731 0.5 0.0388384 0.602685
464 1 0.207092 0.496183 0.5 0.435818 0.512126
465 1 0.958135 0.468264 0.5 -0.197524 0.0489962
466 1 0.32088 0.723625 0.5 0.576926 0.564304
467 1 0.831875 0.4683 0.5 0.445964 -0.718938
468 1 0.137813 0.538886 0.5 0.360318 0.149324
469 1 0.81297 0.657312 0.5 0.66986 0.596106
470 1 0.290846 0.559983 0.5 0.776415 0.190022
471 1 0.0978383 0.370254 0.5 0.427473 0.267887
472 1 0.646147 0.267368 0.5 0.930687 -0.283218
473 1 0.186443 0.0988714 0.5 -0.0385829 -0.363639
474 1 0.160936 0.502541 0.5 0.36207 -0.260279
475 1 0.202707 0.60141 0.5 0.646625 0.692334
476 1 0.35324 0.546701 0.5 0.867383 -0.321225
477 1 0.0851644 0.493841 0.5 0.344945 -0.389269
478 1 0.198011 0.639662 0.5 0.114008 -0.0548923
479 1 0.0401838 0.503157 0.5 0.372929 0.129235
480 1 0.238243 0.663343 0.5 0.244702 0.232096
481 1 0.209093 0.353566 0.5 -0.13504 0.698003
482 1 0.399975 0.676483 0.5 0.742446 0.00871297
483 1 0.356953 0.50661 0.5 0.510221 0.708315
484 1 0.20387 0.848597 0.5 0.352643 -0.137374
485 1 0.307924 0.329291 0.5 0.429903 0.115311
486 1 0.077801 0.444895 0.5 -0.383961 0.40319
487 1 0.0495663 0.567815 0.5 0.300019 0.706666
488 1 0.170686 0.12924 0.5 0.146704 -0.0479443
489 1 0.540915 0.0706055 0.5 0.725347 0.179844
490 1 0.35344 0.564573 0.5 0.966733 0.0107541
491 1 0.163172 0.623205 0.5 -0.0536981 0.372951
492 1 0.0373928 0.492831 0.5 -0.11934 0.381785
493 1 0.0185638 0.272663 0.5 0.563818 -0.19093
494 1 0.055931 0.870786 0.5 -0.256591 0.598992
495 1 0.12361 0.423485 0.5 0.0845841 0.0215767
496 1 0.141589 0.5303 0.5 0.4296 -0.0207817
497 1 0.130433 0.23845 0.5 0.372028 0.890281
498 1 0.106363 0.541615 0.5 -0.0777874 -0.114266
499 1 0.945992 0.513585 0.5 -0.954551 -0.145908
500 1 0.431872 0.697012 0.5 0.587279 0.115077
501 1 0.97343 0.522153 0.5 -0.214136 -0.666417
502 1 0.111866 0.466328 0.5 0.289436 0.754454
503 1 0.148222 0.59081 0.5 0.490783 -0.523627
504 1 0.306473 0.0193328 0.5 -0.319446 0.899378
505 1 0.790362 0.420605 0.5 -0.162309 -0.869654
506 1 0.239262 0.856037 0.5 0.722414 0.385898
507 1 0.156304 0.655995 0.5 0.23552 -0.57616
508 1 0.340638 0.724885 0.5 0.612626 0.517354
509 1 0.20547 0.56478 0.5 0.529662 0.824465
510 1 0.179088 0.58469 0.5 0.0820189 0.589085
511 1 0.0820206 0.512533 0.5 -0.243488 0.440945
512 1 0.170819 0.757709 0.5 0.12553 -0.0282288
513 1 0.947722 0.35147 0.5 -0.182783 -0.496749
514 1 0.225559 0.7734 0.5 0.632312 -0.35908
515 1 0.161054 0.697078 0.5 -0.39223 0.317637
516 1 0.434154 0.0192115 0.5 0.278809 -0.0782974
517 1 0.208003 0.687812 0.5 -0.462823 -0.692235
518 1 0.161154 0.875804 0.5 0.0697008 0.909743
519 1 0.0448531 0.154337 0.5 0.724394 0.305803
520 1 0.88513 0.488386 0.5 0.539679 0.39273
521 1 0.750651 0.617185 0.5 -0.759439 0.434216
522 1 0.197983 0.654437 0.5 -0.383065 0.27244
523 1 0.192739 0.626353 0.5 0.27415 0.49132
524 1 0.0990806 0.674016 0.5 -0.236611 0.499622
525 1 0.868499 0.411485 0.5 0.598766 0.652578
526 1 0.000788059 0.491295 0.5 -0.0421874 -0.219544
527 1 0.348935 0.48906 0.5 0.802895 0.349629
528 1 0.456141 0.671982 0.5 0.503052 -0.0787297
529 1 0.427975 0.650302 0.5 0.616927 0.246471
530 1 0.250526 0.486447 0.5 0.434882 0.519799
531 1 0.274909 0.60462 0.5 0.584491 0.0456007
532 1 0.0283183 0.4895 0.5 -0.219613 0.899504
533 1 0.421259 0.39203 0.5 0.657793 0.395089
534 1 0.533587 0.560682 0.5 0.550691 0.126955
535 1 0.161759 0.706568 0.5 0.03301 0.307245
536 1 0.385502 0.650621 0.5 0.628597 0.507672
537 1 0.0274329 0.705712 0.5 0.151774 -0.0558724
538 1 0.856527 0.770982 0.5 -0.522474 0.558116
539 1 0.201722 0.673503 0.5 0.00553414 0.625818
540 1 0.209821 0.621626 0.5 0.482923 0.793206
541 1 0.128579 0.595845 0.5 -0.6956 -0.523836
542 1 0.0492024 0.346334 0.5 -0.0164424 0.0802087
543 1 0.16189 0.96689 0.5 0.0275065 -0.22376
544 1 0.132383 0.4842 0.5 -0.659042 -0.461277
545 1 0.233537 0.436963 0.5 0.498027 0.716722
546 1 0.187054 0.464023 0.5 -0.0251473 0.17943
547 1 0.939446 0.695054 0.5 -0.559521 0.237619
548 1 0.274373 0.400855 0.5 0.523528 -0.286304
549 1 0.184849 0.576574 0.5 -0.0551554 0.0110772
550 1 0.32321 0.892574 0.5 -0.735724 0.108314
551 1 0.279225 0.418105 0.5 0.30803 -0.929711
552 1 0.0127057 0.532469 0.5 0.612265 -0.28674
553 1 0.0896869 0.447738 0.5 -0.688574 0.0619897
554 1 0.278073 0.444617 0.5 0.833125 -0.409652
555 1 0.281753 0.115712 0.5 0.918323 0.0259912
556 1 0.195254 0.409231 0.5 -0.51045 0.827364
557 1 0.317122 0.581026 0.5 0.227682 0.159026
558 1 0.145405 0.767942 0.5 0.211561 0.774283
559 1 0.245362 0.570853 0.5 0.325366 0.837942
560 1 0.197414 0.492761 0.5 0.393359 0.727207
561 1 0.260202 0.307099 0.5 0.750424 0.381405
562 1 0.240676 0.836536 0.5 0.718228 0.333665
563 1 0.442269 0.62276 0.5 0.781619 0.493878
564 1 0.228167 0.503031 0.5 0.312551 -0.396125
565 1 0.230931 0.669756 0.5 0.491326 0.14217
566 1 0.843501 0.231575 0.5 -0.563255 -0.611723
567 1 0.41218 0.625288 0.5 0.574623 0.132882
568 1 0.96573 0.556119 0.5 0.523637 0.735608
569 1 0.257788 0.663525 0.5 -0.0425903 0.536136
570 1 0.335354 0.0183698 0.5 -0.197504 0.661889
571 1 0.399982 0.306672 0.5 0.055779 0.0328029
572 1 0.163889 0.139075 0.5 0.307107 -0.329846
573 1 0.353268 0.497828 0.5 0.748142 0.484633
574 1 0.338365 0.489097 0.5 0.820875 -0.0397402
575 1 0.232575 0.587266 0.5 0.42747 0.351746
576 1 0.384616 0.816345 0.5 0.858665 0.213223
577 1 0.942006 0.492349 0.5 -0.353624 0.353627
578 1 0.198557 0.152658 0.5 -0.0585194 0.813071
579 1 0.313294 0.589684 0.5 0.757242 -0.27821
580 1 0.0448852 0.767928 0.5 0.267023 0.794555
581 1 0.385727 0.267546 0.5 0.848748 0.348137
582 1 0.352408 0.926742 0.5 0.374757 0.692376
583 1 0.10932 0.204081 0.5 -0.0506805 0.101766
584 1 0.0975026 0.653802 0.5 -0.510873 -0.0952656
585 1 0.0203466 0.611334 0.5 0.119672 -0.483684
586 1 0.398552 0.715833 0.5 0.339643 -0.163683
587 1 0.100044 0.683437 0.5 -0.281802 0.380655
588 1 0.235976 0.521143 0.5 -0.0298022 0.254744
589 1 0.00485294 0.788233 0.5 -0.247685 0.476048
590 1 0.98088 0.33538 0.5 0.765402 -0.417083
591 1 0.0701813 0.78162 0.5 0.446425 0.616707
592 1 0.0689645 0.543428 0.5 -0.106876 0.759464
593 1 0.236849 0.633932 0.5 0.480636 0.576712
594 1 0.372021 0.519162 0.5 0.164062 0.483129
595 1 0.31677 0.552208 0.5 0.89556 0.372167
596 1 0.17439 0.380405 0.5 -0.0786926 -0.401858
597 1 0.072285 0.67866 0.5 -0.686743 0.607637
598 1 0.0394994 0.389695 0.5 0.623948 -0.715355
599 1 0.243371 0.312931 0.5 0.440342 0.557302
600 1 0.911166 0.413821 0.5 0.510544 0.226032
601 1 0.0587008 0.314315 0.5 0.26755 0.56487
602 1 0.174387 0.573589 0.5 -0.0696648 0.367829
603 1 0.984609 0.673983 0.5 -0.293443 0.385205
604 1 0.280771 0.638865 0.5 0.386518 0.446539
605 1 0.403513 0.510854 0.5 0.594853 -0.746005
606 1 0.0182104 0.559597 0.5 0.43939 -0.243669
607 1 0.704047 0.428102 0.5 0.323439 -0.261685
608 1 0.0512632 0.521815 0.5 0.111258 0.640233
609 1 0.0712597 0.601789 0.5 -0.331418 -0.495817
610 1 0.236 0.569309 0.5 0.542502 0.772439
611 1 0.307558 0.262814 0.5 0.529333 0.203886
612 1 0.857965 0.645197 0.5 -0.587177 0.778933
613 1 0.823654 0.357228 0.5 0.339711 0.710949
614 1 0.985409 0.325852 0.5 0.799401 -0.128211
615 1 0.270946 0.48722 0.5 0.00384928 0.499706
616 1 0.406869 0.345173 0.5 0.892454 -0.226997
617 1 0.0426302 0.618691 0.5 -0.937736 -0.144269
618 1 0.0350144 0.592258 0.5 -0.293019 -0.483884
619 1 0.378285 0.611963 0.5 0.819591 0.129403
620 1 0.356068 0.479877 0.5 0.616087 0.152285
621 1 0.0622613 0.446227 0.5 -0.790709 0.200062
622 1 0.188886 0.518847 0.5 0.766705 -0.337474
623 1 0.178193 0.870506 0.5 -0.121783 0.639969
624 1 0.28951 0.353255 0.5 0.552113 0.166892
625 1 0.166511 0.362566 0.5 0.429473 0.760581
626 1 0.997101 0.371513 0.5 0.50458 -0.745567
627 1 0.442814 0.541066 0.5 0 0
628 1 0.290018 0.794749 0.5 0.805618 0.233013
629 1 0.306877 0.469764 0.5 0.920732 -0.00999348
630 1 0.932556 0.477861 0.5 0.102191 0.543843
631 1 0.414649 0.508477 0.5 0.446475 -0.505222
632 1 0.00568629 0.29339 0.5 0.950959 -0.0950426
633 1 0.915952 0.33188 0.5 0.368411 -0.440099
634 1 0.999937 0.454422 0.5 -0.785699 -0.43154
635 1 0.735237 0.777741 0.5 -0.115298 -0.595436
636 1 0.155874 0.561704 0.5 0.431244 -0.299003
637 1 0.94031 0.459468 0.5 -0.521628 0.211867
638 1 0.268863 0.907752 0.5 0.384756 0.764627