ITEM: TIMESTEP
0
ITEM: NUMBER OF ATOMS
9891
ITEM: BOX BOUNDS pp pp pp
-5.8359999999999999e+01 5.8359999999999999e+01
-5.8359999999999999e+01 5.8359999999999999e+01
-5.0000000000000000e-01 5.0000000000000000e-01
ITEM: ATOMS id type xs ys zs c_002[1] c_002[2]
1 1 0.025912 0.0450933 0.5 0.0295114 -0.764108
2 1 0.944043 0.0431158 0.5 0.368893 0.814753
3 1 0.854412 0.102413 0.5 -0.400206 0.361986
4 1 0.0913916 0.993778 0.5 -0.138408 -0.39758
5 1 0.0778996 0.122672 0.5 0.708831 0.557263
6 1 0.994183 0.560399 0.5 0.248391 -0.611571
7 1 0.931282 0.256457 0.5 0.435457 -0.219411
8 1 0.918448 0.414055 0.5 0.680508 0.227806
9 1 0.0492355 0.000657678 0.5 -0.254799 0.736189
10 1 0.720805 0.229715 0.5 0.572762 -0.733159
11 1 0.996194 0.175478 0.5 0.431639 0.0496037
12 1 0.0256331 0.264571 0.5 -0.607127 0.20324
13 1 0.908514 0.0413866 0.5 0.580584 -0.0713889
14 1 0.018968 0.994197 0.5 0.185531 0.695738
15 1 0.844062 0.0312792 0.5 0.47361 0.509508
16 1 0.0480403 0.310606 0.5 -0.495914 0.157286
17 1 0.875906 0.121434 0.5 0.506777 0.418884
18 1 0.0113423 0.19558 0.5 0.276866 0.344684
19 1 0.0242047 0.253293 0.5 -0.316098 0.297092
20 1 0.887724 0.121864 0.5 0.545715 0.521572
21 1 0.96673 0.0575699 0.5 0.328212 0.733988
22 1 0.923668 0.332996 0.5 -0.0426274 -0.836058
23 1 0.952579 0.0834736 0.5 -0.506249 -0.0920619
24 1 0.780459 0.151657 0.5 -0.131984 0.545923
25 1 0.0624362 0.0928822 0.5 -0.671815 -0.112998
26 1 0.0593528 0.286624 0.5 -0.744476 -0.54811
27 1 0.0273954 0.145485 0.5 0.598555 0.449915
28 1 0.0217012 0.354612 0.5 0.0730092 0.427058
29 1 0.996749 0.226794 0.5 -0.207008 0.387352
30 1 0.891104 0.131669 0.5 0.0534409 0.949895
31 1 0.0122643 0.394262 0.5 0.685265 0.36239
32 1 0.220446 0.987125 0.5 0.389679 0.0140385
33 1 0.0512769 0.281421 0.5 -0.665535 -0.449074
34 1 0.857002 0.31225 0.5 -0.315841 -0.239212
35 1 0.0592823 0.937901 0.5 0.49662 0.1502
36 1 0.0508094 0.219966 0.5 -0.169898 0.418477
37 1 0.895422 0.114863 0.5 0.584622 0.482787
38 1 0.912549 0.296552 0.5 -0.0221533 -0.621536
39 1 0.0364614 0.573302 0.5 0.364206 0.740425
40 1 0.088408 0.142045 0.5 0.439315 0.695413
41 1 0.955771 0.215761 0.5 -0.664675 0.0661179
42 1 0.062658 0.255555 0.5 -0.671156 -0.509136
43 1 0.890125 0.0872744 0.5 0.744177 0.475135
44 1 0.922907 0.295293 0.5 -0.0940424 -0.624465
45 1 0.963872 0.444243 0.5 0.263666 0.900628
46 1 0.911583 0.406243 0.5 0.768693 0.203814
47 1 0.00294644 0.266914 0.5 -0.194522 0.447272
48 1 0.0362043 0.12836 0.5 -0.289057 -0.282556
49 1 0.900015 0.106478 0.5 0.761086 0.151311
50 1 0.87255 0.0308863 0.5 0.132016 0.652364
51 1 0.906109 0.209722 0.5 -0.234014 0.561284
52 1 0.965818 0.229217 0.5 -0.404923 0.813264
53 1 0.947812 0.450055 0.5 0.647141 0.624394
54 1 0.92093 0.258858 0.5 0.565197 -0.674006
55 1 0.875406 0.0769962 0.5 0.747784 0.345573
56 1 0.0341783 0.206232 0.5 -0.109382 -0.415761
57 1 0.874483 0.336523 0.5 -0.838054 -0.162917
58 1 0.729797 0.114976 0.5 0.204359 0.749803
59 1 0.00650647 0.0570694 0.5 -0.516941 0.800293
60 1 0.0580691 0.139158 0.5 0.53942 -0.0142665
61 1 0.0827659 0.0946826 0.5 -0.058741 0.252659
62 1 0.936869 0.152118 0.5 -0.2159 0.594895
63 1 0.0323894 0.153756 0.5 0.623022 0.260362
64 1 0.941944 0.122788 0.5 -0.467156 0.544619
65 1 0.93756 0.164099 0.5 -0.835 0.188755
66 1 0.133773 0.0791023 0.5 0.817388 0.0185049
67 1 0.936811 0.481547 0.5 -0.00259916 -0.956063
68 1 0.937183 0.185257 0.5 -0.190983 0.0231962
69 1 0.993809 0.143446 0.5 -0.324115 0.0268727
70 1 0.986057 0.224207 0.5 0.061809 0.551067
71 1 0.842604 0.251352 0.5 0.728213 -0.13224
72 1 0.831174 0.232484 0.5 0.195993 -0.122678
73 1 0.982511 0.161238 0.5 0.385325 -0.424428
74 1 0.964873 0.219814 0.5 -0.531873 0.648563
75 1 0.980521 0.252328 0.5 0.128739 0.955226
76 1 0.892033 0.0682131 0.5 0.668581 0.383161
77 1 0.967941 0.0955087 0.5 -0.900917 -0.294891
78 1 0.893197 0.0507823 0.5 0.712507 0.41167
79 1 0.886152 0.395237 0.5 0.817622 0.150729
80 1 0.200304 0.105817 0.5 -0.109611 0.287183
81 1 0.109843 0.00532823 0.5 0.0459527 0.362671
82 1 0.866054 0.373723 0.5 -0.223017 -0.17432
83 1 0.995759 0.273848 0.5 0.165573 0.896476
84 1 0.0304689 0.216165 0.5 0.436364 -0.278965
85 1 0.951808 0.034354 0.5 0.536226 0.755665
86 1 0.969562 0.0836247 0.5 -0.560655 -0.16215
87 1 0.0722137 0.251406 0.5 -0.124169 -0.0375251
88 1 0.934201 0.2464 0.5 0.610088 -0.536558
89 1 0.944889 0.288051 0.5 0.265758 -0.92855
90 1 0.0742311 0.403045 0.5 0.41252 0.796915
91 1 0.901519 0.135473 0.5 -0.120772 0.884626
92 1 0.86876 0.285701 0.5 -0.376816 -0.387761
93 1 0.945634 0.107285 0.5 -0.0442783 0.190265
94 1 0.973624 0.258994 0.5 -0.00638566 0.867793
95 1 0.0285164 0.37576 0.5 -0.00453369 0.704334
96 1 0.0186228 0.372912 0.5 -0.0396794 0.431203
97 1 0.965506 0.187384 0.5 -0.847771 -0.235562
98 1 0.71025 0.107661 0.5 -0.186979 0.491093
99 1 0.908227 0.987703 0.5 0.278501 0.711573
100 1 0.0260677 0.105674 0.5 0.33184 0.513189
101 1 0.829766 0.408394 0.5 0.160913 0.12062
102 1 0.668171 0.300747 0.5 0.802858 0.166624
103 1 0.0461023 0.265084 0.5 -0.400437 -0.0105616
104 1 0.0548539 0.984755 0.5 -0.126151 -0.224867
105 1 0.808498 0.201059 0.5 -0.538554 0.5873
106 1 0.970416 0.0696412 0.5 0.0756044 0.0547508
107 1 0.00100463 0.217612 0.5 -0.00519046 -0.170962
108 1 0.0693942 0.34277 0.5 -0.572322 -0.710916
109 1 0.953427 0.970889 0.5 -0.358878 0.213342
110 1 0.957059 0.348893 0.5 -0.475071 -0.599867
111 1 0.00859099 0.143918 0.5 0.163299 -0.352129
112 1 0.957734 0.237191 0.5 -0.0460867 0.646725
113 1 0.0302752 0.444936 0.5 0.55826 0.655741
114 1 0.946342 0.199731 0.5 -0.590317 0.306631
115 1 0.899544 0.27941 0.5 0.598377 -0.183564
116 1 0.986689 0.0940178 0.5 0.188516 0.193144
117 1 0.89815 0.204783 0.5 0.153118 0.140934
118 1 0.143362 0.0187607 0.5 -0.283425 -0.700711
119 1 0.0165293 0.0616061 0.5 -0.232172 0.405299
120 1 0.971647 0.383577 0.5 -0.57907 0.542735
121 1 0.893702 0.271884 0.5 0.778995 -0.0572177
122 1 0.989606 0.484065 0.5 0.747964 0.52639
123 1 0.959585 0.132261 0.5 -0.870704 0.196396
124 1 0.213266 0.0503385 0.5 -0.507278 -0.846683
125 1 0.0656376 0.24487 0.5 -0.136864 -0.259138
126 1 0.015736 0.0297455 0.5 -0.0616848 0.603318
127 1 0.967818 0.137719 0.5 -0.72474 0.365963
128 1 0.839058 0.156519 0.5 0.357332 0.661829
129 1 0.95801 0.100588 0.5 -0.736123 -0.271881
130 1 0.826645 0.336616 0.5 0.707905 0.11867
131 1 0.0509348 0.291137 0.5 -0.65916 -0.286911
132 1 0.859537 0.983821 0.5 0.691951 0.270565
133 1 0.00451094 0.0473394 0.5 0.264919 0.751049
134 1 0.0221234 0.172146 0.5 0.619282 0.291093
135 1 0.926746 0.369472 0.5 0.551699 -0.393557
136 1 0.953636 0.225933 0.5 -0.159834 0.169101
137 1 0.930479 0.119301 0.5 -0.280199 0.436563
138 1 0.103732 0.546056 0.5 0.705569 0.533805
139 1 0.985238 0.398935 0.5 0.339005 0.660545
140 1 0.111526 0.447561 0.5 0.137994 0.743806
141 1 0.985096 0.369052 0.5 0.00594231 -0.418253
142 1 0.912243 0.0868555 0.5 0.625996 -0.260164
143 1 0.0890641 0.282718 0.5 -0.928034 0.0638758
144 1 0.936835 0.0502927 0.5 0.412006 0.726926
145 1 0.941816 0.959098 0.5 -0.38021 -0.244469
146 1 0.0761716 0.0509989 0.5 0.827199 -0.337334
147 1 0.895936 0.289318 0.5 0.551099 -0.603102
148 1 0.111238 0.107318 0.5 0.926037 0.106287
149 1 0.95131 0.459885 0.5 0.439883 0.289399
150 1 0.0262028 0.182998 0.5 0.216268 0.801082
151 1 0.930103 0.276428 0.5 0.256237 0.0657416
152 1 0.887192 0.377351 0.5 0.520307 0.254451
153 1 0.000895635 0.15038 0.5 0.0896539 0.117359
154 1 0.950669 0.0626906 0.5 0.180426 0.912655
155 1 0.00132071 0.197639 0.5 -0.0368197 0.190212
156 1 0.987074 0.245778 0.5 -0.168573 0.701807
157 1 0.908722 0.117573 0.5 -0.341223 -0.348922
158 1 0.00310038 0.393121 0.5 0.712305 0.548503
159 1 0.948261 0.316256 0.5 -0.215624 -0.929692
160 1 0.991843 0.203245 0.5 -0.749794 0.336679
161 1 0.0375023 0.108144 0.5 -0.273908 0.233024
162 1 0.972497 0.2023 0.5 -0.793323 -0.324036
163 1 0.0179759 0.143025 0.5 0.518062 0.40995
164 1 0.0289947 0.337251 0.5 0.162983 0.25674
165 1 0.990361 0.167344 0.5 0.0930473 -0.337882
166 1 0.834239 0.27185 0.5 -0.286355 -0.640006
167 1 0.961909 0.293858 0.5 0.302739 -0.526249
168 1 0.864826 0.143863 0.5 0.373383 0.677559
169 1 0.00589412 0.0955548 0.5 -0.542077 -0.0553314
170 1 0.876562 0.0418233 0.5 0.152767 0.3422
171 1 0.794556 0.00613138 0.5 0.0293614 -0.282095
172 1 0.0027943 0.360358 0.5 0.201655 -0.563806
173 1 0.999484 0.185905 0.5 0.185164 0.634006
174 1 0.917705 0.398802 0.5 -0.0457243 -0.00816938
175 1 0.894032 0.370194 0.5 0.358064 0.58323
176 1 0.951059 0.416125 0.5 0.709882 0.0666936
177 1 0.999753 0.248472 0.5 0.0977769 0.65621
178 1 0.976571 0.362157 0.5 -0.418658 -0.533653
179 1 0.976788 0.0575073 0.5 0.309191 0.514674
180 1 0.926115 0.286253 0.5 0.0651299 -0.740566
181 1 0.966122 0.321257 0.5 -0.143171 -0.603829
182 1 0.89664 0.394933 0.5 0.501451 0.390335
183 1 0.94472 0.144566 0.5 -0.354639 0.413533
184 1 0.135837 0.00952272 0.5 0.133135 -0.540808
185 1 0.866534 0.309685 0.5 0.126029 -0.370375
186 1 0.99196 0.193349 0.5 -0.663855 0.454973
187 1 0.0198738 0.0811705 0.5 -0.113094 -0.422067
188 1 0.00409328 0.105171 0.5 -0.118046 0.0373887
189 1 0.117456 0.965418 0.5 -0.308262 0.000595855
190 1 0.935851 0.329461 0.5 0.0356742 -0.724431
191 1 0.928054 0.395693 0.5 0.113992 -0.187456
192 1 0.0835572 0.404833 0.5 0.0364062 0.54903
193 1 0.926794 0.385908 0.5 0.354038 -0.150478
194 1 0.0599246 0.964203 0.5 -0.483523 -0.738551
195 1 0.0154366 0.450693 0.5 0.640469 0.541023
196 1 0.0568956 0.327935 0.5 0.0215461 0.395075
197 1 0.89221 0.195442 0.5 0.47145 -0.229955
198 1 0.98203 0.210343 0.5 -0.155795 -0.0361508
199 1 0.894332 0.0971071 0.5 0.654754 0.393089
200 1 0.960532 0.935425 0.5 -0.618429 0.525192
201 1 0.934036 0.291486 0.5 -0.366899 -0.717296
202 1 0.321342 0.895358 0.5 -0.620844 -0.769452
203 1 0.998052 0.238795 0.5 -0.456506 0.726812
204 1 0.910361 0.354806 0.5 -0.204339 0.108758
205 1 0.0163598 0.346677 0.5 0.0362066 -0.633086
206 1 0.956001 0.192118 0.5 -0.672491 0.168648
207 1 0.880259 0.317958 0.5 0.38385 0.284499
208 1 0.963604 0.389244 0.5 -0.611148 0.623024
209 1 0.974621 0.17125 0.5 -0.418421 0.609247
210 1 0.0185093 0.188998 0.5 -0.18183 0.767546
211 1 0.104013 0.116712 0.5 0.813095 0.412723
212 1 0.0374995 0.379301 0.5 0.241628 0.689637
213 1 0.901779 0.405773 0.5 0.886087 0.390844
214 1 0.94522 0.327726 0.5 -0.0968201 -0.75228
215 1 0.957461 0.451484 0.5 0.299837 0.871314
216 1 0.963727 0.366789 0.5 -0.612567 -0.604292
217 1 0.902548 0.471707 0.5 0.217349 -0.396386
218 1 0.0254334 0.274424 0.5 -0.722143 -0.0921115
219 1 0.9841 0.416751 0.5 0.72856 0.589937
220 1 0.881064 0.0670806 0.5 0.760063 0.046939
221 1 0.965608 0.355085 0.5 -0.415387 -0.63409
222 1 0.931127 0.060394 0.5 0.578461 0.417498
223 1 0.0710521 0.148713 0.5 0.899766 0.255075
224 1 0.794101 0.164424 0.5 -0.163266 0.700779
225 1 0.127523 0.894876 0.5 -0.560806 -0.691187
226 1 0.0114771 0.319616 0.5 -0.690217 -0.496361
227 1 0.718637 0.268086 0.5 -0.0112567 -0.805649
228 1 0.798313 0.0258764 0.5 0.451443 0.394147
229 1 0.936835 0.217572 0.5 -0.429967 0.675034
230 1 0.0946914 0.115388 0.5 0.816568 0.525344
231 1 0.929102 0.170235 0.5 -0.886792 -0.0778808
232 1 0.0374358 0.035774 0.5 0.26208 0.243506
233 1 0.904799 0.388248 0.5 0.512576 0.510716
234 1 0.961785 0.434564 0.5 0.370153 0.741808
235 1 0.986084 0.233716 0.5 -0.422489 0.527001
236 1 0.00857725 0.341022 0.5 -0.574495 -0.708217
237 1 0.987066 0.150089 0.5 -0.140224 -0.451902
238 1 0.834645 0.194079 0.5 0.0792152 -0.667971
239 1 0.873383 0.135719 0.5 -0.486459 0.177151
240 1 0.217759 0.99663 0.5 0.436192 -0.7275
241 1 0.956655 0.274667 0.5 -0.250014 0.197611
242 1 0.871812 0.204661 0.5 -0.708402 -0.143066
243 1 0.94803 0.391875 0.5 -0.29711 -0.477386
244 1 0.911732 0.220562 0.5 0.43918 -0.450318
245 1 0.0277166 0.917914 0.5 -0.577203 -0.601856
246 1 0.0434015 0.370934 0.5 0.139236 0.605297
247 1 0.951342 0.295518 0.5 0.218671 -0.88451
248 1 0.93842 0.226968 0.5 0.0133254 -0.00138877
249 1 0.92979 0.359166 0.5 0.136253 -0.605513
250 1 0.93285 0.301805 0.5 -0.622157 -0.699642
251 1 0.891315 0.169757 0.5 0.145081 0.780918
252 1 0.928895 0.226526 0.5 0.011336 -0.340296
253 1 0.000677553 0.136911 0.5 0.18536 -0.0606832
254 1 0.0291312 0.0765708 0.5 0.0797997 -0.154718
255 1 0.147562 0.115498 0.5 0.835052 -0.0130607
256 1 0.810091 0.0842852 0.5 -0.269415 0.825709
257 1 0.901798 0.173619 0.5 0.124122 0.140058
258 1 0.989463 0.182343 0.5 0.148247 0.626155
259 1 0.93062 0.348642 0.5 -0.387733 -0.550585
260 1 0.0199753 0.217614 0.5 0.260864 0.452932
261 1 0.945576 0.0136325 0.5 0.15593 0.790368
262 1 0.0317644 0.319596 0.5 0.375768 0.345747
263 1 0.975882 0.269835 0.5 -0.437756 0.818312
264 1 0.90541 0.248619 0.5 -0.403469 0.354717
265 1 0.957962 0.312995 0.5 -0.442277 -0.793198
266 1 0.906775 0.432209 0.5 0.746192 0.0139117
267 1 0.0587339 0.00144205 0.5 0.573086 -0.341821
268 1 0.0399406 0.213977 0.5 -0.110936 -0.392995
269 1 0.0714454 0.270563 0.5 -0.765424 -0.382358
270 1 0.940429 0.259053 0.5 0.505962 -0.0199607
271 1 0.969721 0.299637 0.5 -0.462523 -0.292446
272 1 0.878549 0.359212 0.5 0.591531 0.00142452
273 1 0.966547 0.176682 0.5 -0.723916 0.275686
274 1 0.907632 0.12785 0.5 -0.172736 0.301485
275 1 0.868685 0.0196624 0.5 0.72759 0.506704
276 1 0.0133012 0.35914 0.5 0.0414592 -0.473166
277 1 0.0541779 0.42922 0.5 0.64957 0.524709
278 1 0.0536496 0.259006 0.5 -0.668983 0.083321
279 1 0.166778 0.0794558 0.5 0.0585364 -0.0869163
280 1 0.888728 0.322243 0.5 0.369593 0.142996
281 1 0.89281 0.299505 0.5 0.659762 -0.402027
282 1 0.989934 0.408608 0.5 0.671048 0.623062
283 1 0.90255 0.223779 0.5 0.274815 -0.684867
284 1 0.940533 0.0596924 0.5 0.368773 0.668086
285 1 0.00698072 0.15844 0.5 -0.0485076 0.211066
286 1 0.0780553 0.560925 0.5 0.643363 0.550474
287 1 0.0333589 0.472409 0.5 0.427532 0.838636
288 1 0.00100028 0.410305 0.5 0.559401 0.717622
289 1 0.0789504 0.505525 0.5 0.811609 0.367527
290 1 0.873392 0.177309 0.5 0.0228864 0.844964
291 1 0.901802 0.36079 0.5 0.464009 0.497715
292 1 0.0227831 0.881853 0.5 -0.708657 -0.0231197
293 1 0.870258 0.25725 0.5 0.537472 0.55854
294 1 0.909606 0.230345 0.5 0.261502 -0.752965
295 1 0.967181 0.239188 0.5 -0.3662 0.818654
296 1 0.883755 0.3311 0.5 -0.264026 0.265362
297 1 0.972772 0.212413 0.5 -0.12773 0.396004
298 1 0.0815089 0.963016 0.5 -0.193784 -0.0252379
299 1 0.905719 0.0786105 0.5 0.714678 -0.135533
300 1 0.938281 0.385257 0.5 0.166499 -0.343147
301 1 0.96195 0.329994 0.5 -0.123021 -0.704685
302 1 0.959977 0.0900949 0.5 -0.608585 -0.551113
303 1 0.995229 0.316734 0.5 -0.465411 -0.480959
304 1 0.0689624 0.999796 0.5 0.24575 -0.731434
305 1 0.946759 0.235313 0.5 0.0362537 0.00749483
306 1 0.852755 0.201969 0.5 0.227933 0.127937
307 1 0.0773655 0.00556746 0.5 0.328522 -0.560435
308 1 0.0593395 0.528079 0.5 0.328732 0.875008
309 1 0.870656 0.0566501 0.5 -0.404373 0.301945
310 1 0.975215 0.181253 0.5 -0.641019 -0.011288
311 1 0.942065 0.926116 0.5 -0.362594 0.822989
312 1 0.92672 0.201811 0.5 0.0741049 0.593163
313 1 0.9943 0.0821345 0.5 0.408078 0.0311556
314 1 0.985921 0.272633 0.5 0.155807 0.891399
315 1 0.00492559 0.450229 0.5 0.566279 0.746936
316 1 0.14087 0.586809 0.5 -0.00535389 0.723635
317 1 0.854648 0.411972 0.5 0.260056 0.173679
318 1 0.0724048 0.569721 0.5 0.849041 0.108145
319 1 0.153481 0.454264 0.5 0.697445 0.0968737
320 1 0.92072 0.316611 0.5 0.181575 -0.451505
321 1 0.11964 0.369245 0.5 0.517938 0.404532
322 1 0.212287 0.541114 0.5 0.456889 0.534497
323 1 0.0617313 0.362561 0.5 0.125798 0.265459
324 1 0.126517 0.548641 0.5 0.46061 0.550739
325 1 0.167877 0.657014 0.5 -0.0177789 0.553287
326 1 0.0410651 0.508452 0.5 0.697814 0.501653
327 1 0.0924539 0.399388 0.5 -0.494155 0.588735
328 1 0.233008 0.56405 0.5 0.403147 0.111096
329 1 0.0877045 0.675407 0.5 0.336177 0.775354
330 1 0.173754 0.517815 0.5 0.348163 0.477217
331 1 0.910263 0.378978 0.5 0.904481 -0.32883
332 1 0.0130471 0.615824 0.5 0.348052 0.0537144
333 1 0.0894074 0.505624 0.5 0.613128 0.37378
334 1 0.0673866 0.411227 0.5 0.571008 0.720744
335 1 0.0844132 0.497186 0.5 0.960467 0.0489446
336 1 0.306491 0.529833 0.5 0.430525 0.122002
337 1 0.0101524 0.285899 0.5 0.560741 0.0953603
338 1 0.891791 0.360721 0.5 0.524014 0.432795
339 1 0.187769 0.433121 0.5 0.652893 0.356857
340 1 0.0804783 0.468874 0.5 0.479564 0.649367
341 1 0.00405371 0.312525 0.5 -0.150646 -0.674126
342 1 0.110039 0.473209 0.5 0.296352 0.496632
343 1 0.125456 0.291939 0.5 0.167544 -0.252434
344 1 0.971004 0.567342 0.5 0.405451 0.267235
345 1 0.104215 0.617259 0.5 0.318844 0.172574
346 1 0.148188 0.444967 0.5 0.519266 0.647201
347 1 0.960541 0.339643 0.5 -0.349636 -0.795819
348 1 0.0957512 0.526441 0.5 0.583372 0.758651
349 1 0.997738 0.429112 0.5 0.38165 0.83595
350 1 0.954357 0.442076 0.5 0.385107 0.895921
351 1 0.0774505 0.57778 0.5 0.689505 0.316807
352 1 0.125747 0.379434 0.5 0.782355 -0.428941
353 1 0.0575054 0.410552 0.5 0.664939 0.670607
354 1 0.986692 0.349295 0.5 -0.540688 -0.626368
355 1 0.10824 0.554653 0.5 0.871503 0.343484
356 1 0.978135 0.30693 0.5 -0.247991 -0.106203
357 1 0.041077 0.387851 0.5 0.546469 0.795294
358 1 0.0782275 0.458466 0.5 0.335763 0.719745
359 1 0.0729549 0.513364 0.5 0.272064 0.857717
360 1 0.30996 0.482617 0.5 0.479466 0.41735
361 1 0.113663 0.418379 0.5 -0.075765 0.267914
362 1 0.0707144 0.332655 0.5 0.0375157 -0.415337
363 1 0.995198 0.353962 0.5 -0.491468 -0.545055
364 1 0.0618014 0.337062 0.5 -0.0190647 -0.583548
365 1 0.932042 0.339369 0.5 -0.230789 -0.823339
366 1 0.063723 0.494049 0.5 0.353351 0.407622
367 1 0.0181258 0.459864 0.5 0.595611 0.524331
368 1 0.136493 0.548796 0.5 0.869694 0.443487
369 1 0.0425043 0.356923 0.5 0.688785 -0.0561679
370 1 0.100564 0.472218 0.5 0.698745 0.628345
371 1 0.0480378 0.347651 0.5 0.799519 -0.460347
372 1 0.0476189 0.325383 0.5 -0.188369 0.296667
373 1 0.255544 0.454898 0.5 0.888556 -0.0388369
374 1 0.192988 0.540012 0.5 0.526561 0.127734
375 1 0.0680932 0.293989 0.5 -0.511448 -0.741081
376 1 0.110291 0.436576 0.5 0.373351 0.667466
377 1 0.176147 0.604392 0.5 0.526423 0.469368
378 1 0.0443239 0.562935 0.5 0.482163 0.606496
379 1 0.0468248 0.408438 0.5 0.205162 0.920459
380 1 0.0122953 0.532781 0.5 0.562763 0.72123
381 1 0.27729 0.482222 0.5 0.782855 -0.211373
382 1 0.0796588 0.534212 0.5 0.676308 0.53324
383 1 0.0970152 0.462962 0.5 0.412657 0.746883
384 1 0.125967 0.592381 0.5 0.465907 0.338395
385 1 0.128448 0.397506 0.5 0.303313 -0.157441
386 1 0.0694389 0.486477 0.5 0.671491 0.713703
387 1 0.0593646 0.613806 0.5 0.332158 0.506763
388 1 0.0113434 0.329462 0.5 -0.539641 -0.381101
389 1 0.178124 0.508813 0.5 0.794902 0.418616
390 1 0.275416 0.500353 0.5 0.686468 -0.412142
391 1 0.164427 0.620074 0.5 0.584241 -0.224064
392 1 0.933578 0.440694 0.5 0.828572 -0.0647317
393 1 0.108352 0.626851 0.5 0.0553638 0.451754
394 1 0.985002 0.474022 0.5 0.740133 0.565917
395 1 0.134915 0.461389 0.5 0.477611 0.634042
396 1 0.106429 0.482412 0.5 0.525969 0.450486
397 1 0.0319743 0.639751 0.5 0.318732 0.652318
398 1 0.987551 0.607156 0.5 0.399489 -0.710009
399 1 0.984719 0.299184 0.5 0.093994 0.399266
400 1 0.977297 0.610149 0.5 0.00575629 -0.653335
401 1 0.11322 0.408975 0.5 -0.938563 -0.112883
402 1 0.148623 0.578256 0.5 0.0278935 0.8226
403 1 0.138644 0.488386 0.5 0.813648 0.424271
404 1 0.944785 0.440571 0.5 0.74009 0.437537
405 1 0.157917 0.656421 0.5 0.211009 0.671286
406 1 0.241569 0.349838 0.5 0.643219 -0.574451
407 1 0.0952914 0.452271 0.5 0.233478 0.884805
408 1 0.104549 0.403165 0.5 -0.521222 0.298891
409 1 0.166504 0.602168 0.5 0.426673 0.839972
410 1 0.0705116 0.614115 0.5 0.516474 0.487214
411 1 0.915907 0.495609 0.5 0.150042 -0.513641
412 1 0.967266 0.424697 0.5 0.585601 0.473942
413 1 0.930219 0.473361 0.5 -0.141502 -0.885772
414 1 0.238384 0.390059 0.5 0.732551 0.232889
415 1 0.0962672 0.57009 0.5 0.340568 0.511463
416 1 0.897231 0.605522 0.5 0.312378 0.852326
417 1 0.01726 0.385731 0.5 0.141838 0.00255375
418 1 0.958525 0.303401 0.5 -0.365731 -0.69934
419 1 0.0908473 0.470672 0.5 0.639744 0.728815
420 1 0.0683743 0.439891 0.5 0.719042 0.166755
421 1 0.0548025 0.475865 0.5 0.802982 0.532086
422 1 0.179064 0.540316 0.5 0.624163 0.428903
423 1 0.116775 0.46653 0.5 0.170434 0.765463
424 1 0.244682 0.525115 0.5 0.722902 0.37212
425 1 0.0566396 0.501115 0.5 0.142277 0.461483
426 1 0.16128 0.515562 0.5 0.698791 0.428844
427 1 0.245615 0.50965 0.5 0.65196 0.428252
428 1 0.0600017 0.67753 0.5 -0.317182 0.323709
429 1 0.972848 0.508272 0.5 -0.38157 0.183099
430 1 0.192666 0.518984 0.5 0.737561 0.248024
431 1 0.0308656 0.48919 0.5 0.785665 0.141302
432 1 0.120486 0.494394 0.5 0.581571 0.530414
433 1 0.969381 0.407282 0.5 0.782202 0.3754
434 1 0.203205 0.596056 0.5 0.463857 0.635363
435 1 0.175606 0.481186 0.5 0.902396 0.141001
436 1 0.208124 0.484582 0.5 0.749102 0.620641
437 1 0.991314 0.598227 0.5 0.579567 -0.301722
438 1 0.157459 0.506673 0.5 0.703557 0.671226
439 1 0.957929 0.472759 0.5 -0.786627 0.109704
440 1 0.161156 0.47213 0.5 0.771883 0.460972
441 1 0.23952 0.556503 0.5 0.422436 0.166349
442 1 0.124098 0.478015 0.5 0.311086 0.289577
443 1 0.127996 0.487663 0.5 0.434423 0.702532
444 1 0.192788 0.460207 0.5 -0.0222043 -0.783703
445 1 0.0825087 0.516076 0.5 0.564442 0.646125
446 1 0.0672737 0.559283 0.5 0.117265 0.398644
447 1 0.0983507 0.579646 0.5 0.172506 0.791478
448 1 0.945095 0.607181 0.5 -0.415831 0.670435
449 1 0.332356 0.518334 0.5 0.0588576 0.732313
450 1 0.983356 0.59 0.5 0.0163902 -0.651505
451 1 0.0665737 0.322879 0.5 0.111145 0.190729
452 1 0.0609655 0.586369 0.5 0.253378 0.927195
453 1 0.0681484 0.121913 0.5 0.536451 0.743903
454 1 0.00776665 0.240963 0.5 0.0261224 0.950045
455 1 0.94513 0.374553 0.5 0.144799 -0.661429
456 1 0.0123035 0.268515 0.5 0.543358 0.156465
457 1 0.18021 0.582782 0.5 0.660837 0.528972
458 1 0.0729971 0.496261 0.5 0.707082 0.353355
459 1 0.950701 0.432429 0.5 0.64056 0.518594
460 1 0.0802606 0.587165 0.5 0.469214 0.578089
461 1 0.0922912 0.516064 0.5 0.394819 0.699429
462 1 0.1457 0.567648 0.5 0.443063 0.764543
463 1 0.055734 0.518398 0.5 0.659344 0.65035
464 1 0.0209318 0.304655 0.5 -0.5444 0.399592
465 1 0.914675 0.370553 0.5 0.554427 -0.427723
466 1 0.145219 0.478537 0.5 0.649688 0.457935
467 1 0.0298139 0.386261 0.5 0.199365 0.746113
468 1 0.0576112 0.381925 0.5 0.32108 0.913894
469 1 0.975557 0.395361 0.5 0.0281532 0.27277
470 1 0.131866 0.407171 0.5 0.437536 0.244707
471 1 0.0466044 0.455319 0.5 0.643603 0.647333
472 1 0.301557 0.509047 0.5 0.624506 0.557975
473 1 0.186142 0.370237 0.5 0.796171 0.457825
474 1 0.186068 0.531136 0.5 0.697975 0.266605
475 1 0.0813979 0.650553 0.5 -0.159159 -0.518676
476 1 0.149928 0.533616 0.5 0.477714 0.771574
477 1 0.0859773 0.525645 0.5 0.728803 0.63623
478 1 0.953358 0.612158 0.5 -0.478737 0.554423
479 1 0.0576167 0.456971 0.5 0.531031 0.70423
480 1 0.157026 0.628724 0.5 0.57626 0.139684
481 1 0.098955 0.508707 0.5 0.372645 0.714035
482 1 0.135319 0.479086 0.5 0.745231 0.196697
483 1 0.0999618 0.536173 0.5 0.724639 0.63486
484 1 0.13376 0.64219 0.5 0.682057 0.597452
485 1 0.15697 0.524082 0.5 0.797093 0.419919
486 1 0.0451546 0.545833 0.5 0.611879 0.581878
487 1 0.0268591 0.433761 0.5 0.440118 0.77754
488 1 0.118366 0.0169098 0.5 0.317252 -0.706747
489 1 0.22857 0.732658 0.5 -0.189109 0.172956
490 1 0.10359 0.499676 0.5 0.380135 0.688843
491 1 0.0288813 0.552277 0.5 0.826284 -0.022345
492 1 0.0887113 0.488721 0.5 0.86205 0.216579
493 1 0.914256 0.335143 0.5 -0.168466 -0.593489
494 1 0.931236 0.595155 0.5 0.67547 0.201554
495 1 0.135572 0.522374 0.5 0.701406 0.321841
496 1 0.0378006 0.526647 0.5 0.741403 0.472523
497 1 0.974537 0.32649 0.5 -0.235494 -0.667499
498 1 0.983093 0.505246 0.5 -0.542968 -0.319335
499 1 0.0387531 0.464689 0.5 0.545596 0.57235
500 1 0.0671661 0.605319 0.5 0.504176 0.835148
501 1 0.0203369 0.505648 0.5 0.383102 0.736281
502 1 0.015868 0.277831 0.5 0.137127 0.122185
503 1 0.167332 0.555212 0.5 0.394952 0.902728
504 1 0.181646 0.613185 0.5 0.442602 0.458034
505 1 0.220465 0.604018 0.5 0.475282 -0.417852
506 1 0.208696 0.606097 0.5 0.465237 -0.420674
507 1 0.866069 0.342269 0.5 -0.719382 -0.45742
508 1 0.0746444 0.449765 0.5 0.814589 0.413498
509 1 0.127084 0.360925 0.5 0.802752 0.317881
510 1 0.0674485 0.383428 0.5 0.399689 0.817393
511 1 0.975947 0.622455 0.5 -0.466013 -0.795651
512 1 0.139041 0.531372 0.5 0.623289 0.699208
513 1 0.0375866 0.436017 0.5 0.680733 0.691986
514 1 0.96591 0.625678 0.5 -0.0153082 -0.407162
515 1 0.0644522 0.624945 0.5 0.680444 0.499028
516 1 0.172991 0.593747 0.5 0.485075 0.557587
517 1 0.00414207 0.689735 0.5 -0.398141 0.720859
518 1 0.114153 0.545983 0.5 0.791081 0.485761
519 1 0.998815 0.457272 0.5 0.49876 0.794705
520 1 0.143308 0.496813 0.5 0.871596 0.350335
521 1 0.875426 0.326651 0.5 -0.160396 -0.555843
522 1 0.982144 0.538117 0.5 -0.666621 -0.495482
523 1 0.0530162 0.535769 0.5 0.609185 0.643169
524 1 0.0276922 0.498355 0.5 0.5484 0.297323
525 1 0.884734 0.367153 0.5 0.207034 0.348331
526 1 0.019131 0.335129 0.5 -0.0153745 -0.137033
527 1 0.221969 0.468277 0.5 0.433841 0.484148
528 1 0.0915403 0.636005 0.5 0.389163 0.0909503
529 1 0.259228 0.49166 0.5 0.521123 0.74267
530 1 0.86206 0.430523 0.5 0.614175 -0.601938
531 1 0.0411449 0.536327 0.5 0.647358 0.605549
532 1 0.998731 0.344597 0.5 -0.420505 -0.632688
533 1 0.215654 0.443964 0.5 0.737656 -0.15648
534 1 0.216181 0.460129 0.5 0.749539 0.252123
535 1 0.183064 0.520452 0.5 0.501827 0.393988
536 1 0.123878 0.640779 0.5 0.512392 0.636674
537 1 0.0441831 0.39774 0.5 0.287395 0.727301
538 1 0.935367 0.422399 0.5 0.552579 0.308592
539 1 0.173202 0.638688 0.5 -0.088147 0.243344
540 1 0.023027 0.589699 0.5 0.572611 0.780559
541 1 0.174241 0.499534 0.5 0.904125 0.319806
542 1 0.0167393 0.259361 0.5 -0.0129237 0.0951011
543 1 0.186676 0.604584 0.5 0.845483 0.0975633
544 1 0.953118 0.33302 0.5 -0.309614 -0.828667
545 1 0.964991 0.265306 0.5 0.105282 0.513985
546 1 0.0834473 0.569165 0.5 0.684346 0.334052
547 1 0.843418 0.514097 0.5 0.152831 0.292444
548 1 0.148382 0.488322 0.5 0.706061 0.484586
549 1 0.136172 0.417449 0.5 0.442743 -0.077354
550 1 0.255117 0.526502 0.5 0.136385 0.629164
551 1 0.020352 0.316414 0.5 -0.303752 0.0763265
552 1 0.0421251 0.446855 0.5 0.756981 0.360107
553 1 0.976689 0.427613 0.5 0.453215 0.330406
554 1 0.297874 0.499126 0.5 0.697613 0.642141
555 1 0.135548 0.340378 0.5 0.2599 -0.874824
556 1 0.127212 0.531149 0.5 0.540501 0.557133
557 1 0.132171 0.540277 0.5 0.819336 0.417902
558 1 0.0953125 0.608723 0.5 -0.0114217 -0.307048
559 1 0.142713 0.540234 0.5 0.45218 0.692989
560 1 0.949622 0.343006 0.5 -0.520461 -0.646706
561 1 0.109893 0.536649 0.5 0.899632 0.407249
562 1 0.120414 0.584196 0.5 0.621895 0.284951
563 1 0.242981 0.584338 0.5 0.680628 -0.425896
564 1 0.981549 0.464348 0.5 0.550795 0.551775
565 1 0.147507 0.505427 0.5 0.869609 0.392252
566 1 0.0604646 0.419998 0.5 0.711313 0.626369
567 1 0.194791 0.549619 0.5 0.452476 0.681837
568 1 0.115001 0.502095 0.5 0.551076 0.747034
569 1 0.0742912 0.376763 0.5 0.257483 0.899819
570 1 0.0613439 0.276469 0.5 -0.64788 -0.611804
571 1 0.220567 0.398482 0.5 0.720755 0.122232
572 1 0.0365892 0.164479 0.5 0.725622 0.133655
573 1 0.0473113 0.437019 0.5 0.755649 0.399257
574 1 0.166131 0.482064 0.5 0.796863 0.309403
575 1 0.994108 0.615805 0.5 -0.0770541 0.0229966
576 1 0.204091 0.626153 0.5 -0.0968619 -0.348216
577 1 0.0403333 0.416397 0.5 0.454215 0.659818
578 1 0.0951351 0.355651 0.5 0.604571 0.657934
579 1 0.0943186 0.496939 0.5 0.711061 0.260368
580 1 0.971227 0.436276 0.5 0.628024 0.647787
581 1 0.279233 0.380403 0.5 0.727937 -0.327484
582 1 0.196941 0.604495 0.5 0.664258 -0.0329334
583 1 0.955742 0.322736 0.5 -0.0811246 -0.83178
584 1 0.0391821 0.582583 0.5 0.580263 0.638555
585 1 0.0259653 0.479782 0.5 0.55857 0.64095
586 1 0.166551 0.646828 0.5 0.182768 0.660032
587 1 0.0471772 0.498297 0.5 0.360233 0.033209
588 1 0.089718 0.364525 0.5 0.215333 0.40141
589 1 0.928783 0.576542 0.5 0.523431 0.0875027
590 1 0.956696 0.359548 0.5 -0.696374 -0.510386
591 1 0.967042 0.454315 0.5 0.342505 0.762253
592 1 0.0228691 0.3946 0.5 0.747883 0.42951
593 1 0.260523 0.463644 0.5 0.538489 0.218667
594 1 0.151865 0.514302 0.5 0.867652 0.45732
595 1 0.26115 0.475178 0.5 0.430585 0.357226
596 1 0.934188 0.405542 0.5 0.832701 -0.398867
597 1 0.200365 0.466829 0.5 -0.055548 0.0875614
598 1 0.0247711 0.543785 0.5 0.735383 0.525406
599 1 0.182715 0.42505 0.5 0.66015 0.501504
600 1 0.955967 0.40634 0.5 0.270826 0.176428
601 1 0.972191 0.371827 0.5 -0.350978 -0.31544
602 1 0.959963 0.634405 0.5 0.502733 0.539282
603 1 0.122963 0.565857 0.5 0.620893 0.538516
604 1 0.0301565 0.609452 0.5 0.621229 0.703366
605 1 0.145891 0.549598 0.5 0.366747 0.608891
606 1 0.068968 0.50471 0.5 0.442743 0.428095
607 1 0.0964411 0.409078 0.5 -0.546566 0.354738
608 1 0.0317486 0.288708 0.5 0.288718 -0.434781
609 1 0.160938 0.562637 0.5 0.214895 0.921866
610 1 0.0755171 0.477502 0.5 0.755352 0.471759
611 1 0.167573 0.50847 0.5 0.725041 0.47495
612 1 0.993205 0.464834 0.5 0.382187 0.722339
613 1 0.990895 0.436644 0.5 0.628169 0.62405
614 1 0.0327684 0.396758 0.5 0.565987 0.633422
615 1 0.226386 0.534401 0.5 0.496244 0.376444
616 1 0.180357 0.396065 0.5 0.763318 0.207588
617 1 0.0178367 0.402841 0.5 0.717284 0.438651
618 1 0.0151217 0.542593 0.5 0.417623 0.823908
619 1 0.108163 0.510598 0.5 0.684991 0.68466
620 1 0.187726 0.481271 0.5 0.514328 0.252534
621 1 0.994152 0.418204 0.5 0.45334 0.857447
622 1 0.234535 0.418384 0.5 0.394301 -0.249616
623 1 0.0981121 0.626481 0.5 0.63194 0.108909
624 1 0.232683 0.433264 0.5 0.599371 0.225305
625 1 0.0270059 0.297009 0.5 0.240726 0.524195
626 1 0.0125386 0.468741 0.5 0.779002 0.504304
627 1 0.167399 0.525086 0.5 0.28634 0.410533
628 1 0.355838 0.558514 0.5 -0.112867 -0.322022
629 1 0.223542 0.477755 0.5 0.194407 0.695795
630 1 0.0107475 0.442122 0.5 0.546234 0.515911
631 1 0.227884 0.460537 0.5 0.764108 0.585699
632 1 0.993811 0.303073 0.5 -0.27104 0.502489
633 1 0.00253014 0.467773 0.5 0.311917 0.823967
634 1 0.112148 0.519519 0.5 0.651503 0.649341
635 1 0.980303 0.408006 0.5 0.845653 0.414956
636 1 0.127921 0.512776 0.5 0.427191 0.334063