ITEM: TIMESTEP
0
ITEM: NUMBER OF ATOMS
9945
ITEM: BOX BOUNDS pp pp pp
-5.8359999999999999e+01 5.8359999999999999e+01
-5.8359999999999999e+01 5.8359999999999999e+01
-5.0000000000000000e-01 5.0000000000000000e-01
ITEM: ATOMS id type xs ys zs c_002[1] c_002[2]
1 1 0.180371 0.945132 0.5 0.894267 -0.096839
2 1 0.628737 0.921784 0.5 -0.0776004 0.68824
3 1 0.0642479 0.761415 0.5 0.0252823 -0.876942
4 1 0.0933398 0.977947 0.5 0.141491 0.466341
5 1 0.08557 0.888879 0.5 0.0372033 -0.312218
6 1 0.2356 0.983607 0.5 -0.254883 0.0674037
7 1 0.968444 0.203743 0.5 -0.0311216 0.322344
8 1 0.193771 0.991544 0.5 0.319567 0.687316
9 1 0.255369 0.681227 0.5 -0.535373 -0.40988
10 1 0.674659 0.823901 0.5 0.583722 -0.279912
11 1 0.805528 0.777785 0.5 0.788809 0.519139
12 1 0.288582 0.980033 0.5 -0.332559 0.240604
13 1 0.175579 0.8137 0.5 0.91429 0.207006
14 1 0.105955 0.320991 0.5 -0.125999 -0.547018
15 1 0.995526 0.1521 0.5 0.00768552 -0.814254
16 1 0.203449 0.0385095 0.5 0.482138 0.320198
17 1 0.395907 0.828291 0.5 0.724921 0.464352
18 1 0.261116 0.548166 0.5 -0.300787 -0.686718
19 1 0.336059 0.908306 0.5 -0.518354 0.714502
20 1 0.239636 0.681667 0.5 -0.246801 -0.0573605
21 1 0.940544 0.571531 0.5 0.843891 0.248662
22 1 0.15498 0.481868 0.5 0.342196 -0.633887
23 1 0.102864 0.624371 0.5 0.347489 0.398952
24 1 0.184475 0.221426 0.5 0.168074 -0.860008
25 1 0.12931 0.704378 0.5 0.452365 0.319287
26 1 0.0943222 0.814631 0.5 0.0829093 0.11183
27 1 0.984844 0.711326 0.5 0.132656 -0.101492
28 1 0.270626 0.236492 0.5 -0.160055 0.270953
29 1 0.333822 0.0658053 0.5 0.46094 -0.27004
30 1 0.218451 0.514148 0.5 -0.48823 0.197208
31 1 0.129539 0.732601 0.5 -0.044282 -0.741401
32 1 0.320464 0.925032 0.5 -0.146763 0.726747
33 1 0.0531003 0.894205 0.5 0.0702329 0.44817
34 1 0.901711 0.800518 0.5 0.349166 0.812921
35 1 0.143762 0.984897 0.5 0.602741 -0.265113
36 1 0.114368 0.219113 0.5 -0.938164 -0.0860262
37 1 0.185704 0.795632 0.5 0.657348 0.432597
38 1 0.369176 0.962155 0.5 -0.736127 0.431452
39 1 0.918209 0.227541 0.5 0.3594 0.474602
40 1 0.897349 0.732426 0.5 0.316384 0.877841
41 1 0.877239 0.790002 0.5 0.683029 -0.0240124
42 1 0.334366 0.808184 0.5 0.146612 -0.709594
43 1 0.372983 0.0653391 0.5 -0.752181 -0.593017
44 1 0.888452 0.508466 0.5 0.338171 0.267353
45 1 0.394556 0.988776 0.5 0.0373578 -0.470474
46 1 0.693954 0.680756 0.5 0.689922 -0.436562
47 1 0.215584 0.706777 0.5 -0.363354 -0.769496
48 1 0.793689 0.895563 0.5 -0.178086 -0.814745
49 1 0.621507 0.893942 0.5 0.443094 0.056754
50 1 0.204351 0.933372 0.5 0.307521 -0.860176
51 1 0.192974 0.787406 0.5 0.342268 0.621995
52 1 0.291843 0.127037 0.5 0.735949 -0.307766
53 1 0.644138 0.557636 0.5 -0.180421 -0.158633
54 1 0.944751 0.0128348 0.5 0.591195 0.549513
55 1 0.0719965 0.891951 0.5 -0.102193 -0.237078
56 1 0.405317 0.789285 0.5 0.707208 -0.242884
57 1 0.763247 0.839159 0.5 -0.562137 0.0400358
58 1 0.829628 0.813075 0.5 0.790676 -0.492466
59 1 0.0384669 0.584801 0.5 0.198638 0.949694
60 1 0.0605191 0.926669 0.5 -0.300736 0.646378
61 1 0.006659 0.986109 0.5 -0.528988 0.788438
62 1 0.101914 0.910052 0.5 0.458936 0.236273
63 1 0.906951 0.735658 0.5 0.0927688 0.823939
64 1 0.180004 0.679483 0.5 0.355279 -0.399466
65 1 0.836505 0.663133 0.5 -0.682255 -0.496729
66 1 0.438518 0.913631 0.5 -0.0956379 0.293213
67 1 0.83338 0.741076 0.5 0.379586 0.176223
68 1 0.111993 0.68429 0.5 0.662279 0.548774
69 1 0.779205 0.614808 0.5 0.0469203 -0.104871
70 1 0.776123 0.644109 0.5 -0.536793 -0.368813
71 1 0.143388 0.76049 0.5 0.133831 0.110117
72 1 0.0632009 0.0969238 0.5 -0.0122104 -0.405188
73 1 0.0780565 0.936109 0.5 -0.815462 -0.406028
74 1 0.259257 0.187677 0.5 0.695305 0.567575
75 1 0.324655 0.866633 0.5 0.559922 -0.447343
76 1 0.836488 0.691718 0.5 -0.661904 0.291173
77 1 0.0312385 0.945583 0.5 -0.56954 0.769801
78 1 0.00112147 0.0603404 0.5 -0.203208 0.604438
79 1 0.992578 0.888989 0.5 0.493352 0.082405
80 1 0.346381 0.913188 0.5 -0.574793 0.283378
81 1 0.196995 0.886832 0.5 -0.358972 -0.173484
82 1 0.433936 0.828664 0.5 0.619711 0.484734
83 1 0.414954 0.0218709 0.5 -0.649315 -0.525009
84 1 0.99095 0.25018 0.5 0.502489 0.52907
85 1 0.739937 0.88326 0.5 -0.182681 -0.443305
86 1 0.100466 0.683044 0.5 0.189593 -0.0515964
87 1 0.936144 0.869128 0.5 0.0493 0.0766093
88 1 0.0796334 0.774873 0.5 0.0866993 -0.91528
89 1 0.868668 0.0658704 0.5 0.528956 -0.744244
90 1 0.232152 0.784479 0.5 0.707866 -0.56631
91 1 0.749561 0.475171 0.5 0.340264 -0.524364
92 1 0.777966 0.20759 0.5 0.0843883 -0.917218
93 1 0.149635 0.231185 0.5 -0.374601 -0.441291
94 1 0.975784 0.0587204 0.5 0.0139032 0.969909
95 1 0.0351834 0.841381 0.5 0.438777 0.408794
96 1 0.0425495 0.801498 0.5 -0.126021 -0.788117
97 1 0.828649 0.0409189 0.5 -0.173406 -0.897163
98 1 0.942997 0.740521 0.5 0.101696 -0.564243
99 1 0.614292 0.039114 0.5 0.693529 -0.240014
100 1 0.223572 0.359553 0.5 0.792223 0.340923
101 1 0.95454 0.76608 0.5 -0.306028 0.489419
102 1 0.692254 0.741759 0.5 -0.288577 -0.309695
103 1 0.163445 0.0526178 0.5 -0.0806181 -0.808737
104 1 0.290246 0.0858045 0.5 0.207541 -0.365
105 1 0.0914083 0.82382 0.5 0.544769 -0.356633
106 1 0.93165 0.0601318 0.5 0.161875 0.631084
107 1 0.925631 0.697716 0.5 -0.106488 -0.220802
108 1 0.0233648 0.894153 0.5 0.733142 0.417754
109 1 0.976849 0.663413 0.5 -0.0690212 -0.508785
110 1 0.919648 0.997413 0.5 0.103014 0.154338
111 1 0.916522 0.766991 0.5 0.492817 0.835017
112 1 0.864318 0.955147 0.5 -0.875983 -0.00784002
113 1 0.182822 0.351245 0.5 0.79527 -0.32366
114 1 0.147761 0.187022 0.5 0.145556 0.10062
115 1 0.160017 0.730746 0.5 -0.0497232 0.256807
116 1 0.133346 0.889657 0.5 0.461819 0.172501
117 1 0.311194 0.00573002 0.5 -0.825596 -0.22134
118 1 0.883103 0.978079 0.5 -0.543703 0.388635
119 1 0.989441 0.69014 0.5 -0.238975 -0.821906
120 1 0.990548 0.916342 0.5 0.351084 0.628955
121 1 0.0276699 0.00228843 0.5 -0.342769 0.784002
122 1 0.151735 0.881536 0.5 0.425809 0.156706
123 1 0.257765 0.558177 0.5 0.0491201 -0.810822
124 1 0.592007 0.972431 0.5 0.465484 0.453467
125 1 0.883042 0.779263 0.5 0.548633 0.418131
126 1 0.0126576 0.771684 0.5 0.23074 -0.207247
127 1 0.717157 0.576158 0.5 0.466414 0.699337
128 1 0.148155 0.696797 0.5 0.0668997 0.318639
129 1 0.430581 0.986646 0.5 -0.278583 -0.631355
130 1 0.725943 0.121533 0.5 -0.544671 -0.528307
131 1 0.254067 0.981067 0.5 0.441605 0.662063
132 1 0.112612 0.62368 0.5 0.461253 -0.740895
133 1 0.0675074 0.882926 0.5 0.186506 0.281415
134 1 0.144792 0.529111 0.5 0.906788 -0.0240216
135 1 0.0698972 0.952395 0.5 -0.845465 0.363844
136 1 0.0121831 0.0156997 0.5 0.17418 0.914135
137 1 0.0383306 0.820034 0.5 0.254467 -0.254791
138 1 0.175695 0.567339 0.5 0.9883 -0.109022
139 1 0.898524 0.855647 0.5 0.857655 0.211295
140 1 0.45853 0.682619 0.5 0.114236 -0.877286
141 1 0.184709 0.0464532 0.5 0.0357985 -0.77039
142 1 0.818203 0.760315 0.5 0.526658 0.796322
143 1 0.275288 0.901902 0.5 0.526107 0.448645
144 1 0.0257472 0.669393 0.5 0.786176 -0.188206
145 1 0.880115 0.683954 0.5 0.401007 -0.637971
146 1 0.974292 0.805329 0.5 -0.359164 0.543174
147 1 0.22561 0.955036 0.5 0.674595 0.594304
148 1 0.0158638 0.988939 0.5 -0.413028 0.841477
149 1 0.0875786 0.877337 0.5 0.316072 -0.349931
150 1 0.291555 0.87746 0.5 0.508001 0.770646
151 1 0.233181 0.843127 0.5 0.139341 -0.0675644
152 1 0.0982091 0.104177 0.5 0.123211 -0.494034
153 1 0.00603475 0.764714 0.5 -0.171901 -0.289934
154 1 0.760209 0.657701 0.5 -0.0122477 -0.0220236
155 1 0.213394 0.0854159 0.5 0.00926292 -0.805271
156 1 0.937557 0.913626 0.5 0.441801 0.308721
157 1 0.941311 0.858868 0.5 0.108626 0.472307
158 1 0.322982 0.956648 0.5 -0.67805 -0.168534
159 1 0.65762 0.997874 0.5 0.704826 -0.533962
160 1 0.833968 0.897258 0.5 -0.188593 0.231294
161 1 0.179882 0.136501 0.5 0.0386154 0.143864
162 1 0.643965 0.607233 0.5 -0.27751 0.311473
163 1 0.945387 0.8679 0.5 0.332827 0.466249
164 1 0.0819167 0.0304808 0.5 0.645742 -0.456737
165 1 0.766587 0.717777 0.5 -0.352076 -0.506249
166 1 0.862989 0.84784 0.5 0.666351 -0.488913
167 1 0.411129 0.840201 0.5 0.271966 0.7765
168 1 0.0961471 0.0223132 0.5 0.286865 0.365923
169 1 0.283526 0.671971 0.5 -0.543197 -0.693859
170 1 0.157768 0.621366 0.5 0.429537 -0.320158
171 1 0.195411 0.649882 0.5 0.437543 -0.212236
172 1 0.115297 0.107067 0.5 0.152709 -0.671547
173 1 0.127901 0.045207 0.5 -0.342954 0.000320194
174 1 0.138027 0.14907 0.5 -0.656368 -0.127558
175 1 0.998289 0.880888 0.5 0.850694 0.408682
176 1 0.947562 0.708498 0.5 -0.622497 0.0485932
177 1 0.057987 0.884916 0.5 0.641785 0.0502746
178 1 0.0161376 0.780398 0.5 -0.0735112 0.282157
179 1 0.134035 0.648358 0.5 0.60387 -0.118282
180 1 0.281914 0.0216472 0.5 0.155942 -0.408785
181 1 0.877759 0.728866 0.5 0.650706 0.572648
182 1 0.223555 0.93086 0.5 0.390986 -0.662528
183 1 0.936608 0.601982 0.5 0.474895 -0.616587
184 1 0.180397 0.558938 0.5 0.991971 -0.0985222
185 1 0.19682 0.0717511 0.5 -0.153641 -0.691709
186 1 0.279194 0.229936 0.5 -0.0416166 0.484957
187 1 0.897217 0.790412 0.5 0.582775 0.758671
188 1 0.101733 0.868716 0.5 0.433135 0.629472
189 1 0.00615826 0.787901 0.5 -0.0477155 0.375949
190 1 0.154253 0.631562 0.5 0.657178 0.242419
191 1 0.0147241 0.855508 0.5 0.240886 0.5919
192 1 0.276336 0.995057 0.5 0.114862 0.774098
193 1 0.0129813 0.845698 0.5 -0.108077 0.728478
194 1 0.836502 0.719175 0.5 0.00672708 0.289398
195 1 0.0798726 0.966015 0.5 -0.320267 0.693685
196 1 0.175255 0.932491 0.5 -0.482637 -0.366711
197 1 0.1686 0.0714237 0.5 -0.100352 -0.780024
198 1 0.147045 0.956513 0.5 -0.0453965 0.248806
199 1 0.122726 0.686066 0.5 0.210276 0.235514
200 1 0.0820527 0.99715 0.5 -0.202054 0.684583
201 1 0.210057 0.685624 0.5 0.469531 -0.295757
202 1 0.0849408 0.0215457 0.5 0.452062 -0.328027
203 1 0.119245 0.958242 0.5 0.652792 0.314369
204 1 0.570709 0.799412 0.5 0.532324 0.774726
205 1 0.993315 0.114545 0.5 0.142947 0.372115
206 1 0.27218 0.83338 0.5 0.438351 0.271268
207 1 0.883475 0.300393 0.5 0.216372 -0.0122746
208 1 0.182052 0.0582791 0.5 -0.0357345 -0.733198
209 1 0.128771 0.799358 0.5 0.103534 0.373762
210 1 0.280318 0.941004 0.5 0.0667669 0.297425
211 1 0.203154 0.966592 0.5 -0.0807328 0.33074
212 1 0.973563 0.0477145 0.5 -0.0922937 0.77908
213 1 0.0262968 0.810697 0.5 0.0985192 0.795139
214 1 0.138221 0.800519 0.5 0.812805 -0.0117802
215 1 0.949407 0.0325852 0.5 -0.364327 0.147111
216 1 0.554724 0.0929763 0.5 -0.0954398 -0.310203
217 1 0.278485 0.580312 0.5 0.768624 -0.60109
218 1 0.22247 0.102627 0.5 0.59576 -0.106058
219 1 0.276424 0.117054 0.5 -0.205767 0.300391
220 1 0.658056 0.774307 0.5 -0.168939 -0.0957226
221 1 0.987165 0.903718 0.5 -0.137895 0.794235
222 1 0.405212 0.0806785 0.5 -0.413305 -0.0733696
223 1 0.302891 0.0327755 0.5 -0.489306 0.63149
224 1 0.0233745 0.0272929 0.5 -0.0601054 -0.00608143
225 1 0.766886 0.810543 0.5 -0.434889 -0.0314155
226 1 0.293799 0.143531 0.5 0.660484 -0.116812
227 1 0.548484 0.443146 0.5 0.172027 -0.609139
228 1 0.569578 0.942942 0.5 0.670216 0.70485
229 1 0.230436 0.0905427 0.5 0.389643 -0.190341
230 1 0.941194 0.780484 0.5 0.684923 0.562301
231 1 0.995786 0.711733 0.5 0.0601426 0.170572
232 1 0.860008 0.736419 0.5 0.675933 0.55
233 1 0.0448992 0.726006 0.5 0.0824906 -0.931933
234 1 0.284369 0.145268 0.5 0.350226 -0.132251
235 1 0.729759 0.882265 0.5 0.537618 -0.41673
236 1 0.999492 0.00233521 0.5 -0.585668 0.760622
237 1 0.370418 0.676812 0.5 0.876881 0.168344
238 1 0.444713 0.0743378 0.5 0.0494223 0.0403062
239 1 0.0535368 0.632956 0.5 0.442448 -0.452323
240 1 0.962809 0.0175144 0.5 0.0453107 0.451245
241 1 0.228045 0.216412 0.5 0.0109181 -0.228155
242 1 0.0408216 0.696914 0.5 0.333603 -0.562051
243 1 0.114589 0.89397 0.5 0.365742 0.0897075
244 1 0.113913 0.95017 0.5 0.610203 -0.233104
245 1 0.0741854 0.794295 0.5 0.245418 -0.861486
246 1 0.889289 0.142498 0.5 -0.486371 -0.52007
247 1 0.108772 0.052936 0.5 0.509838 0.220255
248 1 0.321194 0.00257991 0.5 -0.776639 -0.346618
249 1 0.884605 0.924112 0.5 -0.483376 -0.603283
250 1 0.265888 0.994545 0.5 -0.146464 0.592909
251 1 0.119212 0.593769 0.5 0.659476 0.112571
252 1 0.126794 0.908871 0.5 0.329218 -0.696683
253 1 0.913001 0.828833 0.5 0.717408 -0.0432861
254 1 0.86123 0.0173524 0.5 -0.318409 -0.221063
255 1 0.586345 0.851284 0.5 0.489946 0.721191
256 1 0.996203 0.721423 0.5 0.127359 -0.0807376
257 1 0.00629811 0.723183 0.5 -0.113697 0.0385608
258 1 0.305571 0.099685 0.5 -0.487303 -0.432222
259 1 0.209651 0.0476534 0.5 -0.335695 -0.294435
260 1 0.15655 0.856969 0.5 0.378351 -0.160993
261 1 0.122016 0.237026 0.5 -0.519283 -0.0625405
262 1 0.97618 0.790254 0.5 0.0771275 -0.685428
263 1 0.792469 0.820545 0.5 0.124612 0.060149
264 1 0.948469 0.877549 0.5 0.523848 0.404892
265 1 0.851673 0.578846 0.5 0.492168 0.335976
266 1 0.934305 0.789281 0.5 0.640079 0.636723
267 1 0.222765 0.0410548 0.5 0.148261 0.417973
268 1 0.408736 0.830075 0.5 0.270793 0.795448
269 1 0.95222 0.746219 0.5 -0.596307 -0.33112
270 1 0.827611 0.657333 0.5 -0.895291 -0.230451
271 1 0.230749 0.0344861 0.5 0.408825 0.691535
272 1 0.208443 0.289075 0.5 0.063978 -0.00802599
273 1 0.891246 0.740004 0.5 0.105144 0.860256
274 1 0.898259 0.0373514 0.5 -0.767695 0.455437
275 1 0.86992 0.710447 0.5 0 0
276 1 0.177471 0.720736 0.5 0.111214 0.438419
277 1 0.876346 0.916007 0.5 -0.381244 -0.883148
278 1 0.22737 0.206133 0.5 0.0491279 0.134499
279 1 0.998441 0.992189 0.5 -0.846181 0.505747
280 1 0.154376 0.567014 0.5 0.903523 0.304231
281 1 0.814069 0.71346 0.5 -0.160653 0.468241
282 1 0.164446 0.104473 0.5 -0.520305 -0.478629
283 1 0.124133 0.0775251 0.5 0.0868621 -0.799923
284 1 0.881674 0.737797 0.5 0.558568 0.734318
285 1 0.718865 0.748817 0.5 -0.231224 -0.306048
286 1 0.20924 0.0301741 0.5 0.457271 0.59416
287 1 0.76453 0.800504 0.5 0.478662 0.137148
288 1 0.10641 0.938632 0.5 0.834517 -0.194619
289 1 0.089674 0.901635 0.5 -0.368888 0.300629
290 1 0.0778413 0.946334 0.5 -0.677498 0.308173
291 1 0.0883703 0.836938 0.5 -0.00950757 -0.0151094
292 1 0.0781312 0.050484 0.5 0.365117 0.341135
293 1 0.855723 0.725675 0.5 0.403764 0.846471
294 1 0.958503 0.879825 0.5 0.362256 0.729748
295 1 0.352151 0.964122 0.5 -0.656665 0.655219
296 1 0.918035 0.689578 0.5 0.16779 -0.647889
297 1 0.482878 0.763849 0.5 -0.265878 0.899462
298 1 0.174018 0.711356 0.5 -0.0903936 -0.32087
299 1 0.00594529 0.148898 0.5 -0.515587 -0.593603
300 1 0.0578089 0.917405 0.5 -0.0474658 0.740169
301 1 0.261012 0.25486 0.5 0.0153795 0.972829
302 1 0.980977 0.558305 0.5 -0.622922 -0.284515
303 1 0.276048 0.179843 0.5 0.424126 0.530197
304 1 0.0334776 0.804433 0.5 -0.445496 -0.124921
305 1 0.262415 0.0700133 0.5 -0.141541 0.0949102
306 1 0.139629 0.93817 0.5 0.113739 0.00397811
307 1 0.356948 0.0216985 0.5 -0.671401 -0.241678
308 1 0.352496 0.202757 0.5 -0.452087 -0.0955241
309 1 0.404491 0.0145754 0.5 -0.0228671 -0.457624
310 1 0.0309635 0.914608 0.5 -0.627887 0.537991
311 1 0.884418 0.747752 0.5 0.155945 0.542965
312 1 0.944779 0.761732 0.5 -0.00557676 0.55074
313 1 0.806838 0.909782 0.5 -0.29341 -0.920341
314 1 0.988522 0.742456 0.5 -0.0102758 -0.0359937
315 1 0.0977163 0.27058 0.5 -0.40551 0.677318
316 1 0.221822 0.479465 0.5 0.457482 0.465602
317 1 0.192017 0.316137 0.5 0.932502 -0.255472
318 1 0.329137 0.331506 0.5 0.219464 -0.624484
319 1 0.937107 0.274202 0.5 -0.607487 0.539906
320 1 0.262183 0.280858 0.5 0.567048 -0.431722
321 1 0.361584 0.251416 0.5 -0.837344 -0.246377
322 1 0.401502 0.920423 0.5 0.409893 0.676718
323 1 0.227331 0.138788 0.5 -0.13323 0.0570791
324 1 0.16234 0.027238 0.5 0.242626 -0.557908
325 1 0.408766 0.323368 0.5 0.65805 -0.611652
326 1 0.248193 0.00917936 0.5 0.861848 0.3261
327 1 0.185466 0.953466 0.5 0.694732 -0.497576
328 1 0.590729 0.0903028 0.5 0.397732 -0.0843316
329 1 0.231458 0.246732 0.5 -0.236367 0.12223
330 1 0.408109 0.237852 0.5 -0.884196 -0.4355
331 1 0.244605 0.259946 0.5 0.0817403 0.914095
332 1 0.673321 0.969924 0.5 0.464586 -0.286904
333 1 0.109896 0.151595 0.5 -0.933265 -0.342205
334 1 0.183964 0.39014 0.5 0.508658 -0.269091
335 1 0.0447309 0.463741 0.5 0.603057 0.0440643
336 1 0.181981 0.316331 0.5 0.919328 0.175441
337 1 0.0612189 0.407962 0.5 -0.342516 -0.523781
338 1 0.0785315 0.0136175 0.5 -0.0761735 0.0358491
339 1 0.544396 0.95658 0.5 0.116656 0.783296
340 1 0.174095 0.766615 0.5 0.200281 0.901183
341 1 0.801351 0.332182 0.5 0.0166457 -0.854533
342 1 0.0698974 0.279104 0.5 -0.17699 0.2435
343 1 0.0850893 0.145761 0.5 0.510718 -0.00613576
344 1 0.0349719 0.197418 0.5 -0.591742 0.147794
345 1 0.441432 0.27557 0.5 -0.498544 -0.844613
346 1 0.131402 0.302068 0.5 -0.265901 -0.337419
347 1 0.274429 0.303976 0.5 -0.0561579 0.0654465
348 1 0.00527886 0.263207 0.5 -0.519829 0.579655
349 1 0.309965 0.197421 0.5 0.364704 -0.330868
350 1 0.0952407 0.390665 0.5 0.497053 -0.445583
351 1 0.203075 0.416615 0.5 0.707577 -0.467731
352 1 0.70983 0.248232 0.5 -0.130576 -0.869002
353 1 0.0671864 0.235615 0.5 -0.849318 0.0519258
354 1 0.627468 0.0531744 0.5 0.601104 -0.263372
355 1 0.268993 0.975984 0.5 0.0869808 -0.16889
356 1 0.444755 0.904978 0.5 0.229587 0.716056
357 1 0.293257 0.570833 0.5 0.83888 -0.169553
358 1 0.373827 0.0550738 0.5 -0.746192 -0.152412
359 1 0.371733 0.00818433 0.5 -0.383498 -0.0471306
360 1 0.263911 0.169033 0.5 0.471254 0.327354
361 1 0.127512 0.426475 0.5 0.619432 0.417137
362 1 0.827021 0.345671 0.5 0.4883 -0.782844
363 1 0.707466 0.155225 0.5 -0.407907 -0.508153
364 1 0.255583 0.880927 0.5 0.916553 -0.0233161
365 1 0.138015 0.994286 0.5 0.81225 -0.0474854
366 1 0.236833 0.369582 0.5 -0.039094 0.411057
367 1 0.254045 0.212297 0.5 -0.055986 -0.26205
368 1 0.312676 0.395431 0.5 0.433946 -0.458677
369 1 0.136473 0.855538 0.5 0.81513 0.361957
370 1 0.877772 0.318997 0.5 0.313008 -0.154137
371 1 0.326811 0.312816 0.5 0.380643 -0.254405
372 1 0.148951 0.318313 0.5 0.295375 -0.689315
373 1 0.647163 0.165936 0.5 -0.576511 -0.718092
374 1 0.171879 0.757434 0.5 0.0181523 0.983055
375 1 0.981419 0.219241 0.5 0.0429504 0.491023
376 1 0.330923 0.11376 0.5 -0.345483 -0.875652
377 1 0.243774 0.481963 0.5 0.413417 0.311461
378 1 0.324618 0.217859 0.5 -0.632871 0.498747
379 1 0.0866641 0.0390074 0.5 0.329129 0.314211
380 1 0.10378 0.424348 0.5 -0.509835 -0.77851
381 1 0.215074 0.15165 0.5 0.697678 -0.327391
382 1 0.217917 0.322014 0.5 0.47087 -0.232507
383 1 0.942878 0.55128 0.5 0.268118 -0.519263
384 1 0.0763249 0.221632 0.5 -0.417185 -0.0568653
385 1 0.998928 0.277999 0.5 -0.321013 0.787863
386 1 0.0595685 0.25012 0.5 -0.792629 0.439568
387 1 0.291932 0.200881 0.5 0.375658 0.0107704
388 1 0.0563973 0.166082 0.5 0.323033 -0.810312
389 1 0.00753736 0.678508 0.5 0.330569 0.0468699
390 1 0.126125 0.409527 0.5 0.799895 -0.352383
391 1 0.914081 0.413434 0.5 -0.302355 0.0117328
392 1 0.367815 0.396897 0.5 -0.0559027 -0.144369
393 1 0.968047 0.361537 0.5 -0.532313 -0.719492
394 1 0.0781064 0.372491 0.5 0.272656 0.196782
395 1 0.144661 0.0506175 0.5 -0.109616 -0.389899
396 1 0.129811 0.142515 0.5 -0.632112 -0.608235
397 1 0.991022 0.418846 0.5 -0.50606 0.0868519
398 1 0.32332 0.754573 0.5 0.571265 -0.578084
399 1 0.185112 0.249499 0.5 0.114386 0.306222
400 1 0.0258194 0.582538 0.5 0.330892 0.498058
401 1 0.157981 0.975947 0.5 0.689249 -0.467958
402 1 0.169455 0.290523 0.5 -0.345036 -0.65737
403 1 0.436151 0.00466542 0.5 -0.76831 -0.609511
404 1 0.0875743 0.372949 0.5 0.713397 0.317849
405 1 0.283689 0.173018 0.5 0.26597 0.701251
406 1 0.122778 0.566637 0.5 0.971323 -0.202136
407 1 0.168136 0.362411 0.5 0.758034 -0.269367
408 1 0.31202 0.0771713 0.5 -0.1563 -0.638365
409 1 0.595805 0.0590708 0.5 0.780499 -0.34598
410 1 0.847744 0.178714 0.5 0.009805 0.803893
411 1 0.986914 0.0344284 0.5 0.0101052 0.769504
412 1 0.0606267 0.281865 0.5 -0.587643 0.130329
413 1 0.199229 0.198833 0.5 -0.188009 -0.321132
414 1 0.302536 0.0209672 0.5 -0.468419 0.337811
415 1 0.372131 0.0768643 0.5 -0.282734 -0.469571
416 1 0.198528 0.83027 0.5 -0.129923 -0.748014
417 1 0.485599 0.279427 0.5 0.229726 -0.0242013
418 1 0.205717 0.0773214 0.5 -0.485857 -0.604242
419 1 0.172466 0.11041 0.5 -0.407933 -0.811481
420 1 0.0205152 0.28701 0.5 -0.731211 0.428546
421 1 0.210697 0.972396 0.5 0.117505 0.18318
422 1 0.280876 0.875237 0.5 0.228075 0.896434
423 1 0.420963 0.81439 0.5 -0.16095 0.761556
424 1 0.113789 0.249465 0.5 -0.161491 0.0372634
425 1 0.296067 0.172262 0.5 0.312139 -0.222961
426 1 0.228601 0.0501995 0.5 -0.421784 -0.0128486
427 1 0.160987 0.437469 0.5 0.752749 0.300953
428 1 0.343505 0.0999093 0.5 -0.139664 -0.825887
429 1 0.0984776 0.189793 0.5 -0.558507 -0.00283724
430 1 0.957682 0.325103 0.5 -0.338026 0.0565468
431 1 0.96638 0.956685 0.5 -0.142326 0.370826
432 1 0.855381 0.65179 0.5 -0.771589 0.293147
433 1 0.354597 0.215091 0.5 -0.62476 -0.221354
434 1 0.168251 0.301377 0.5 -0.712169 0.0132835
435 1 0.216321 0.807058 0.5 0.554909 0.0200397
436 1 0.240904 0.0637134 0.5 0.0710732 0.977245
437 1 0.460757 0.784418 0.5 -0.25845 -0.265345
438 1 0.190949 0.0355156 0.5 -0.0637446 0.32654
439 1 0.348088 0.0251343 0.5 -0.665799 -0.0378893
440 1 0.158192 0.263057 0.5 -0.499583 0.154334
441 1 0.170132 0.541434 0.5 0.906205 -0.210342
442 1 0.891957 0.307085 0.5 0.201205 -0.163973
443 1 0.12391 0.0152437 0.5 0.295697 0.624799
444 1 0.187926 0.000153806 0.5 0.583117 0.732567
445 1 0.873841 0.358099 0.5 0.110221 -0.529568
446 1 0.538949 0.255791 0.5 0.492933 0.695065
447 1 0.988528 0.975411 0.5 -0.663438 0.424596
448 1 0.157143 0.0355144 0.5 -0.0421311 -0.326823
449 1 0.511348 0.132781 0.5 -0.645052 -0.589648
450 1 0.259064 0.24559 0.5 -0.325236 0.85538
451 1 0.340066 0.283126 0.5 -0.988843 -0.0715621
452 1 0.99017 0.565423 0.5 -0.511532 0.171989
453 1 0.36373 0.00275106 0.5 -0.475225 0.0618637
454 1 0.226311 0.982555 0.5 0.615665 0.159641
455 1 0.869275 0.162995 0.5 -0.424802 -0.553278
456 1 0.9867 0.227046 0.5 -0.200042 -0.559849
457 1 0.714957 0.198261 0.5 0.248341 -0.605376
458 1 0.704323 0.309237 0.5 -0.476997 -0.332665
459 1 0.19797 0.272042 0.5 0.102292 0.805608
460 1 0.259809 0.853648 0.5 0.425241 -0.857189
461 1 0.0787641 0.559332 0.5 0.63641 0.177799
462 1 0.959811 0.490946 0.5 -0.627014 -0.36994
463 1 0.306963 0.2504 0.5 -0.494378 -0.836482
464 1 0.314327 0.0672223 0.5 -0.248012 -0.650014
465 1 0.326408 0.0968261 0.5 0.26856 -0.577538
466 1 0.43775 0.257637 0.5 0.397503 -0.466146
467 1 0.13715 0.15923 0.5 -0.701785 -0.1269
468 1 0.691263 0.168578 0.5 -0.0637941 -0.741103
469 1 0.955438 0.0513864 0.5 -0.493903 0.501557
470 1 0.23151 0.377666 0.5 0.222022 0.0753584
471 1 0.286324 0.182524 0.5 0.5308 0.473894
472 1 0.658052 0.271194 0.5 -0.455339 -0.183326
473 1 0.347067 0.410005 0.5 -0.110824 -0.748876
474 1 0.093658 0.307285 0.5 -0.310997 0.640018
475 1 0.190754 0.27987 0.5 -0.136719 0.682061
476 1 0.233033 0.313672 0.5 0.643492 -0.662375
477 1 0.53631 0.0315464 0.5 0.57354 0.629407
478 1 0.0761435 0.486018 0.5 0.832726 0.00705756
479 1 0.260711 0.040151 0.5 0.361222 0.569348
480 1 0.236874 0.304754 0.5 0.351469 -0.547676
481 1 0.141936 0.00302979 0.5 -0.308273 0.39286
482 1 0.196904 0.601867 0.5 0.485536 -0.452675
483 1 0.213986 0.853209 0.5 -0.827113 -0.13895
484 1 0.206226 0.305479 0.5 0.315057 -0.55913
485 1 0.0121088 0.376667 0.5 0.129708 -0.387452
486 1 0.108849 0.283103 0.5 -0.364606 -0.0982818
487 1 0.325823 0.365643 0.5 -0.474675 0.64176
488 1 0.0444712 0.876337 0.5 0.900506 0.277091
489 1 0.0186242 0.620503 0.5 0.320073 -0.406591
490 1 0.193199 0.179941 0.5 -0.577241 -0.515821
491 1 0.306017 0.0423953 0.5 -0.376078 0.320231
492 1 0.190126 0.0647103 0.5 -0.163874 -0.806007
493 1 0.248993 0.0562229 0.5 0.212202 0.890609
494 1 0.831208 0.0301733 0.5 -0.396999 -0.832724
495 1 0.270406 0.38042 0.5 -0.634083 0.131088
496 1 0.158255 0.541178 0.5 0.569632 0.189641
497 1 0.32512 0.252356 0.5 -0.516216 -0.523013
498 1 0.996187 0.508171 0.5 0.644644 -0.632114
499 1 0.335382 0.33923 0.5 0.727044 -0.176463
500 1 0.105384 0.110096 0.5 -0.474003 -0.668193
501 1 0.0264376 0.514275 0.5 0.129158 0.139608
502 1 0.863962 0.406804 0.5 0.11565 0.304351
503 1 0.231799 0.257709 0.5 -0.110895 -0.0329802
504 1 0.00271752 0.514833 0.5 0.511314 -0.787957
505 1 0.115621 0.48584 0.5 0.507822 0.0284569
506 1 0.217182 0.204724 0.5 0.306711 0.355742
507 1 0.359769 0.0512849 0.5 0.726019 -0.153184
508 1 0.140633 0.246651 0.5 -0.270634 -0.662641
509 1 0.203729 0.245864 0.5 -0.514587 0.394113
510 1 0.99337 0.369752 0.5 -0.7551 -0.572823
511 1 0.0852203 0.811132 0.5 0.505953 0.121575
512 1 0.984103 0.535858 0.5 -0.522599 -0.532653
513 1 0.0186873 0.0821547 0.5 0.413737 0.44929
514 1 0.208685 0.539508 0.5 0.648584 -0.633263
515 1 0.132828 0.510694 0.5 0.968686 -0.0620911
516 1 0.108957 0.372443 0.5 0.770209 0.164253
517 1 0.377963 0.301858 0.5 0.591763 -0.556781
518 1 0.25287 0.169605 0.5 -0.0508609 0.168063
519 1 0.131115 0.133074 0.5 -0.594351 -0.795006
520 1 0.266882 0.938228 0.5 0.375753 0.593854
521 1 0.0735659 0.0964867 0.5 0.381038 -0.332547
522 1 0.362984 0.0687166 0.5 0.0206528 -0.904608
523 1 0.0952879 0.219837 0.5 -0.85647 -0.0470728
524 1 0.0263294 0.446364 0.5 0.0623822 -0.533016
525 1 0.0407252 0.949527 0.5 -0.77427 0.597828
526 1 0.329216 0.00768197 0.5 -0.764788 0.11021
527 1 0.196201 0.251806 0.5 -0.325856 0.370327
528 1 0.36811 0.301737 0.5 0.486501 0.0911197
529 1 0.991258 0.380877 0.5 -0.751863 -0.514741
530 1 0.923103 0.805266 0.5 0.378605 0.55746
531 1 0.95991 0.298266 0.5 0.504773 -0.000617776
532 1 0.318457 0.085564 0.5 0.393475 -0.601958
533 1 0.152528 0.0651348 0.5 -0.10172 -0.745527
534 1 0.179482 0.241769 0.5 -0.189055 -0.520111
535 1 0.212545 0.134349 0.5 0.352449 -0.411518
536 1 0.254623 0.225083 0.5 -0.488991 0.448446
537 1 0.0901842 0.968516 0.5 0.122987 0.84678
538 1 0.2804 0.163578 0.5 0.228303 0.879542
539 1 0.677006 0.202735 0.5 -0.241048 -0.578497
540 1 0.0114129 0.292716 0.5 -0.890864 0.199361
541 1 0.891455 0.325706 0.5 -0.205656 0.430676
542 1 0.0437575 0.047006 0.5 0.445303 0.146691
543 1 0.241115 0.890168 0.5 -0.0938164 0.294304
544 1 0.12173 0.918569 0.5 0.282571 -0.63024
545 1 0.335385 0.965294 0.5 -0.147317 0.367687
546 1 0.652671 0.182749 0.5 -0.281196 -0.831116
547 1 0.954757 0.271809 0.5 0.252612 0.574239
548 1 0.344094 0.252384 0.5 -0.65743 0.221079
549 1 0.059283 0.780469 0.5 -0.0765827 -0.921385
550 1 0.243519 0.999629 0.5 0.372303 -0.00336116
551 1 0.110187 0.264132 0.5 -0.37243 0.327682
552 1 0.083358 0.303207 0.5 -0.451562 0.612206
553 1 0.159128 0.0725573 0.5 0.436079 -0.8264
554 1 0.0662459 0.580773 0.5 0.588844 -0.413849
555 1 0.380883 0.946319 0.5 -0.0685066 0.337438
556 1 0.162905 0.183633 0.5 -0.447018 -0.686219
557 1 0.0615358 0.206644 0.5 -0.243619 -0.36787
558 1 0.380337 0.564199 0.5 0.939966 0.0691387
559 1 0.367169 0.180956 0.5 0.201043 0.218128
560 1 0.215312 0.120571 0.5 -0.112512 -0.501284
561 1 0.115168 0.383115 0.5 0.642129 0.127219
562 1 0.414348 0.131202 0.5 0.155126 -0.729428
563 1 0.135808 0.545765 0.5 0.286993 -0.0294303
564 1 0.1454 0.390419 0.5 0.742681 -0.416058
565 1 0.306866 0.221953 0.5 -0.0425989 0.872752
566 1 0.10255 0.302755 0.5 -0.201125 0.521854
567 1 0.0159395 0.229581 0.5 -0.277322 0.591729
568 1 0.150654 0.298066 0.5 0.133595 -0.708808
569 1 0.15444 0.107437 0.5 -0.275117 -0.846011
570 1 0.338437 0.0211866 0.5 -0.803704 0.443602
571 1 0.807638 0.171847 0.5 0.0124133 -0.89439
572 1 0.916348 0.264492 0.5 -0.247411 0.740911
573 1 0.154343 0.178929 0.5 -0.37626 0.0850329
574 1 0.123745 0.346198 0.5 0.916541 -0.204906
575 1 0.0332465 0.633531 0.5 0.310201 0.855229
576 1 0.0559562 0.484715 0.5 0.816394 0.143683
577 1 0.118478 0.280258 0.5 -0.631709 -0.533788
578 1 0.183332 0.185014 0.5 -0.669104 -0.480067
579 1 0.439974 0.820156 0.5 0.188949 0.537162
580 1 0.229892 0.159264 0.5 0.39355 0.0401115
581 1 0.193555 0.434229 0.5 0.712177 -0.482621
582 1 0.320981 0.0220753 0.5 -0.904196 0.1326
583 1 0.941729 0.353256 0.5 -0.487972 -0.177073
584 1 0.251964 0.195445 0.5 0.655015 0.333316
585 1 0.24584 0.027889 0.5 0.726169 0.423063
586 1 0.0791405 0.332409 0.5 0.246615 0.126645
587 1 0.151038 0.0276657 0.5 0.103634 -0.218038
588 1 0.297142 0.116369 0.5 0.148024 -0.341975
589 1 0.0220042 0.335673 0.5 0.822353 -0.496736
590 1 0.160363 0.318156 0.5 0.270243 -0.368041
591 1 0.0867929 0.214685 0.5 -0.921012 -0.123727
592 1 0.949176 0.198276 0.5 -0.26854 0.144538
593 1 0.263849 0.138731 0.5 0.0525231 0.447508
594 1 0.179284 0.360707 0.5 0.698322 -0.410336
595 1 0.146726 0.152369 0.5 -0.829459 0.0423265
596 1 0.225397 0.168124 0.5 0.935621 -0.0335597
597 1 0.395124 0.189542 0.5 -0.00862911 -0.822366
598 1 0.153449 0.985546 0.5 0.750928 -0.485393
599 1 0.986921 0.846358 0.5 -0.00199216 0.928968
600 1 0.136451 0.179449 0.5 -0.771368 0.18786
601 1 0.955292 0.870653 0.5 0.0778948 0.878135
602 1 0.025218 0.354331 0.5 0.32904 -0.544575
603 1 0.336308 0.98 0.5 -0.360821 0.254368
604 1 0.00545534 0.069339 0.5 0.0198467 0.864316
605 1 0.014783 0.21686 0.5 -0.462005 0.0158775
606 1 0.0711114 0.80323 0.5 0.029189 -0.168025
607 1 0.0822406 0.606151 0.5 0.86401 -0.307233
608 1 0.885019 0.19221 0.5 -0.0698834 0.193474
609 1 0.0968005 0.598496 0.5 0.510356 0.201416
610 1 0.878521 0.270913 0.5 -0.81182 0.338856
611 1 0.105995 0.183479 0.5 -0.591908 0.213295
612 1 0.232448 0.232007 0.5 -0.337501 -0.790851
613 1 0.135481 0.0519321 0.5 -0.375238 -0.642997
614 1 0.0483513 0.885333 0.5 0.601379 0.0272838
615 1 0.266717 0.111038 0.5 -0.790613 -0.389321
616 1 0.37011 0.25685 0.5 -0.868657 -0.280208
617 1 0.115206 0.0609967 0.5 0.125255 -0.0689017
618 1 0.0647332 0.504123 0.5 0.881358 0.253697
619 1 0.989227 0.332428 0.5 0.171166 0.00903747
620 1 0.0139175 0.51248 0.5 0.370362 -0.297393
621 1 0.280929 0.355833 0.5 -0.246006 -0.0585852
622 1 0.26888 0.554281 0.5 0.103719 -0.724197
623 1 0.210219 0.424116 0.5 0.533796 -0.0962258
624 1 0.79828 0.415007 0.5 0.029807 -0.401608
625 1 0.0592904 0.336072 0.5 -0.575491 -0.334097
626 1 0.0190833 0.318212 0.5 -0.299298 -0.527538
627 1 0.0458885 0.350914 0.5 0.00953146 -0.555897
628 1 0.362415 0.200475 0.5 -0.470156 -0.349198
629 1 0.0734755 0.288692 0.5 -0.0448507 0.339396
630 1 0.939937 0.6297 0.5 -0.104786 -0.423713
631 1 0.0161193 0.929314 0.5 0.323806 0.522228
632 1 0.0642397 0.359868 0.5 -0.139157 -0.438216