ITEM: TIMESTEP
0
ITEM: NUMBER OF ATOMS
9945
ITEM: BOX BOUNDS pp pp pp
-5.8359999999999999e+01 5.8359999999999999e+01
-5.8359999999999999e+01 5.8359999999999999e+01
-5.0000000000000000e-01 5.0000000000000000e-01
ITEM: ATOMS id type xs ys zs c_002[1] c_002[2]
1 1 0.146862 0.101468 0.5 -0.189893 -0.14677
2 1 0.955095 0.940589 0.5 0.0496481 -0.446563
3 1 0.982277 0.939078 0.5 -0.116351 -0.549156
4 1 0.932543 0.11325 0.5 0.523055 0.513495
5 1 0.925396 0.230042 0.5 0.151971 -0.856921
6 1 0.151055 0.0120496 0.5 -0.876306 -0.244705
7 1 0.0580078 0.112469 0.5 0.327958 -0.0972636
8 1 0.943287 0.992287 0.5 0.073735 -0.604942
9 1 0.966425 0.937254 0.5 0.0620402 -0.423922
10 1 0.0275174 0.824886 0.5 0.127581 -0.793103
11 1 0.91806 0.856973 0.5 -0.740048 -0.556442
12 1 0.978781 0.178657 0.5 -0.271518 0.577981
13 1 0.910637 0.949148 0.5 0.346185 -0.453895
14 1 0.0150821 0.0829281 0.5 0.1332 0.112769
15 1 0.892879 0.988307 0.5 0.93371 -0.13392
16 1 0.0735506 0.186434 0.5 0.397573 -0.31723
17 1 0.891684 0.00741729 0.5 0.384946 0.59892
18 1 0.236161 0.879497 0.5 -0.47865 -0.808857
19 1 0.993223 0.099087 0.5 0.764819 0.0638234
20 1 0.088448 0.859879 0.5 -0.00206028 -0.683211
21 1 0.919809 0.031953 0.5 0.199655 -0.0991866
22 1 0.0567486 0.957988 0.5 -0.827121 -0.100919
23 1 0.9143 0.0138236 0.5 0.263208 0.00367154
24 1 0.0101403 0.161815 0.5 -0.13403 -0.20825
25 1 0.0348456 0.00998426 0.5 -0.74305 -0.614483
26 1 0.0183288 0.0669042 0.5 0.260378 0.684389
27 1 0.925604 0.966116 0.5 0.187291 -0.31695
28 1 0.0706458 0.112778 0.5 0.38128 0.513723
29 1 0.982412 0.206559 0.5 0.433316 -0.477793
30 1 0.0271784 0.874166 0.5 -0.532526 -0.3346
31 1 0.966497 0.123997 0.5 0.943549 0.209043
32 1 0.0357027 0.076182 0.5 0.808934 -0.149106
33 1 0.964838 0.0511296 0.5 0.661357 -0.29627
34 1 0.948331 0.188802 0.5 -0.405658 -0.833185
35 1 0.0941239 0.14334 0.5 -0.335619 -0.0195121
36 1 0.144762 0.177993 0.5 -0.896845 0.108046
37 1 0.100488 0.855227 0.5 -0.513086 -0.661163
38 1 0.943337 0.113549 0.5 0.534153 0.176702
39 1 0.0915607 0.15308 0.5 -0.536074 -0.74531
40 1 0.835216 0.00870527 0.5 -0.00350896 0.731194
41 1 0.902031 0.0429034 0.5 -0.14318 0.623875
42 1 0.0205423 0.12572 0.5 0.373576 0.514727
43 1 0.0992725 0.11969 0.5 -0.0431349 -0.75218
44 1 0.0433021 0.83674 0.5 -0.0982183 -0.690683
45 1 0.0644583 0.0732097 0.5 -0.0894248 -0.590842
46 1 0.834862 0.861588 0.5 -0.550622 -0.302023
47 1 0.027524 0.00370137 0.5 -0.834286 -0.350215
48 1 0.920225 0.905736 0.5 -0.284754 -0.75528
49 1 0.845799 0.827151 0.5 -0.147022 -0.728954
50 1 0.956673 0.969164 0.5 -0.129707 -0.446556
51 1 0.972444 0.97165 0.5 -0.242659 -0.526413
52 1 0.144981 0.120465 0.5 -0.926576 -0.250257
53 1 0.89325 0.894849 0.5 -0.649839 -0.542383
54 1 0.902475 0.834474 0.5 -0.164028 -0.798262
55 1 0.900455 0.030957 0.5 -0.166503 0.377526
56 1 0.101945 0.100399 0.5 -0.488761 -0.769905
57 1 0.976651 0.891517 0.5 -0.376027 -0.448804
58 1 0.990407 0.868421 0.5 -0.360436 -0.701283
59 1 0.0393469 0.959184 0.5 -0.28498 -0.398231
60 1 0.0369428 0.0566099 0.5 0.547229 -0.252291
61 1 0.971305 0.114901 0.5 0.787804 0.449446
62 1 0.0263707 0.0140657 0.5 -0.461915 -0.227941
63 1 0.0290108 0.0680979 0.5 0.81771 0.0618616
64 1 0.962582 0.0902544 0.5 0.440279 -0.0861518
65 1 0.0108146 0.980477 0.5 -0.633133 -0.592311
66 1 0.0469742 0.0960633 0.5 -0.553783 -0.664087
67 1 0.876428 0.894451 0.5 -0.885852 -0.179171
68 1 0.962535 0.978788 0.5 0.335797 0.567256
69 1 0.00100047 0.853119 0.5 -0.215694 -0.949117
70 1 0.944409 0.866523 0.5 -0.579475 -0.635768
71 1 0.0646359 0.152851 0.5 0.612665 -0.552672
72 1 0.934235 0.160249 0.5 0.292618 0.0093841
73 1 0.0367848 0.988339 0.5 -0.776385 -0.442704
74 1 0.00330461 0.0987533 0.5 0.455177 -0.204469
75 1 0.0197322 0.965616 0.5 -0.5847 -0.660747
76 1 0.0776872 0.0389711 0.5 -0.946634 -0.229977
77 1 0.0979926 0.00870151 0.5 -0.867922 -0.458898
78 1 0.948883 0.101863 0.5 0.716465 -0.24762
79 1 0.949793 0.178863 0.5 -0.704685 -0.57357
80 1 0.9791 0.057995 0.5 -0.376422 0.811447
81 1 0.0243636 0.0764028 0.5 0.509427 0.0430105
82 1 0.958318 0.0994628 0.5 0.198958 -0.48025
83 1 0.136527 0.163413 0.5 -0.310816 -0.23891
84 1 0.902696 0.110136 0.5 -0.450449 -0.476122
85 1 0.962975 0.946249 0.5 0.222096 -0.649602
86 1 0.0556135 0.89601 0.5 0.238972 0.55293
87 1 0.0428468 0.0160231 0.5 -0.815097 -0.316397
88 1 0.927575 0.911717 0.5 0.0274277 -0.91092
89 1 0.991009 0.987107 0.5 -0.596738 -0.686114
90 1 0.193207 0.175471 0.5 0.200548 0.109079
91 1 0.02706 0.743626 0.5 0.329483 0.588333
92 1 0.874316 0.190992 0.5 0.321527 -0.586948
93 1 0.11908 0.955897 0.5 -0.25884 -0.426764
94 1 0.92748 0.0849849 0.5 0.677323 -0.211673
95 1 0.0101452 0.12525 0.5 0.348473 0.451953
96 1 0.938926 0.934256 0.5 -0.0257056 -0.778833
97 1 0.907404 0.285785 0.5 0.395693 -0.138546
98 1 0.968909 0.837595 0.5 0.148088 -0.810941
99 1 0.107798 0.0241773 0.5 -0.577074 -0.0406769
100 1 0.917754 0.224278 0.5 0.279762 -0.707594
101 1 0.0183393 0.997748 0.5 -0.83735 -0.148723
102 1 0.851592 0.807218 0.5 -0.000413641 -0.900007
103 1 0.0410334 0.0378414 0.5 -0.736988 -0.317255
104 1 0.0804739 0.167912 0.5 -0.500521 -0.519679
105 1 0.978277 0.0370502 0.5 -0.550671 0.322517
106 1 0.953098 0.0727367 0.5 0.779402 0.43135
107 1 0.955392 0.91223 0.5 -0.750035 -0.404572
108 1 0.153973 0.0614169 0.5 0.362182 -0.748992
109 1 0.92252 0.883879 0.5 -0.589924 -0.690504
110 1 0.793034 0.111142 0.5 -0.518372 0.771581
111 1 0.00391029 0.842691 0.5 -0.136924 -0.889304
112 1 0.941863 0.925262 0.5 0.0180446 -0.752364
113 1 0.133146 0.0300117 0.5 -0.7841 -0.555817
114 1 0.0182562 0.144164 0.5 0.432798 -0.530053
115 1 0.94349 0.0470315 0.5 -0.0416594 -0.108438
116 1 0.186072 0.0696375 0.5 -0.441916 -0.0801574
117 1 0.959869 0.133485 0.5 0.665063 0.268232
118 1 0.073405 0.83286 0.5 0.268282 -0.587496
119 1 0.950857 0.884957 0.5 -0.600738 -0.692514
120 1 0.949056 7e-05 0.5 0.597898 -0.643992
121 1 0.965704 0.0305681 0.5 0.203247 0.162467
122 1 0.121846 0.199598 0.5 0.415711 0.65423
123 1 0.920287 0.0950536 0.5 0.475314 0.272236
124 1 0.0351472 0.929428 0.5 -0.219812 -0.0162595
125 1 0.934539 0.947119 0.5 0.199024 -0.799904
126 1 0.012844 0.839743 0.5 -0.247618 -0.706173
127 1 0.00883306 0.820672 0.5 0.0452579 -0.868455
128 1 0.0217619 0.798529 0.5 -0.607748 0.271051
129 1 0.159048 0.041964 0.5 -0.0747078 -0.335017
130 1 0.113096 0.134666 0.5 0.0375666 -0.635111
131 1 0.0402319 0.088592 0.5 -0.350309 -0.122346
132 1 0.0235314 0.904013 0.5 -0.127113 -0.581504
133 1 0.0695147 0.843838 0.5 0.596792 -0.0259783
134 1 0.0610156 0.880464 0.5 -0.106604 -0.188768
135 1 0.981992 0.020064 0.5 0.501845 0.669444
136 1 0.855121 0.983241 0.5 0.433795 -0.486408
137 1 0.99548 0.916138 0.5 -0.706121 -0.583639
138 1 0.135871 0.104983 0.5 -0.508832 -0.54756
139 1 0.961764 0.8791 0.5 -0.498928 -0.445975
140 1 0.093776 0.0928983 0.5 0.134094 -0.771054
141 1 0.0255288 0.152058 0.5 0.538543 0.100939
142 1 0.988132 0.838456 0.5 -0.251849 -0.342386
143 1 0.0552933 0.0758472 0.5 0.633925 0.112959
144 1 0.124207 0.0341486 0.5 -0.804344 -0.398295
145 1 0.897574 0.815148 0.5 -0.483133 -0.856011
146 1 0.999687 0.993719 0.5 0.0149152 -0.679498
147 1 0.00421474 0.0339349 0.5 0.0205735 0.202719
148 1 0.987298 0.0899066 0.5 0.54949 0.564711
149 1 0.934046 0.0658804 0.5 -0.00620831 -0.581937
150 1 0.0217209 0.955398 0.5 -0.264052 -0.733642
151 1 0.108445 0.00349873 0.5 -0.684826 -0.369507
152 1 0.972631 0.159071 0.5 0.122384 0.496838
153 1 0.0270533 0.993117 0.5 -0.924564 -0.249917
154 1 0.905474 0.969385 0.5 -0.304617 -0.174631
155 1 0.11286 0.887475 0.5 -0.720604 -0.478644
156 1 0.0300539 0.961552 0.5 -0.306355 -0.849129
157 1 0.000782925 0.9334 0.5 -0.26832 -0.849306
158 1 0.993669 0.161124 0.5 0.0113007 0.542111
159 1 0.945818 0.971654 0.5 0.0587913 -0.953671
160 1 0.80272 0.955282 0.5 -0.398039 0.146313
161 1 0.0604936 0.083644 0.5 0.769364 -0.566361
162 1 0.934777 0.918072 0.5 0.270726 -0.802293
163 1 0.884154 0.90025 0.5 -0.858408 -0.410858
164 1 0.949242 0.0634187 0.5 0.467659 -0.238308
165 1 0.912142 0.0439469 0.5 0.528557 0.702772
166 1 0.892699 0.94003 0.5 0.284448 -0.258528
167 1 0.0936815 0.0734742 0.5 -0.0132655 -0.466707
168 1 0.872237 0.961576 0.5 0.493115 -0.382378
169 1 0.887282 0.979139 0.5 0.632901 -0.519944
170 1 0.0718515 0.854737 0.5 0.451147 0.0627208
171 1 0.111662 0.89975 0.5 -0.422077 -0.0518851
172 1 0.00147677 0.983431 0.5 -0.463287 -0.601706
173 1 0.989803 0.996919 0.5 -0.495917 -0.397194
174 1 0.963333 0.927517 0.5 -0.496614 -0.0603271
175 1 0.993579 0.02405 0.5 0.0684949 0.488728
176 1 0.972229 0.999203 0.5 0.142812 0.640909
177 1 0.0770846 0.0898305 0.5 0.0527075 -0.747394
178 1 0.986815 0.0501393 0.5 -0.475835 0.601486
179 1 0.192659 0.0772786 0.5 -0.192104 -0.0520626
180 1 0.0304713 0.0498039 0.5 0.585932 0.0531707
181 1 0.00563986 0.870184 0.5 -0.264004 -0.224934
182 1 0.904216 0.022005 0.5 0.273906 0.579665
183 1 0.984194 0.929612 0.5 -0.397956 -0.746411
184 1 0.0178863 0.937846 0.5 0.0647358 -0.515323
185 1 0.917878 0.957155 0.5 0.549862 -0.435311
186 1 0.999954 0.134887 0.5 0.517914 0.424303
187 1 0.947982 0.905132 0.5 -0.74578 -0.467283
188 1 0.00595852 0.950652 0.5 0.110601 -0.943592
189 1 0.203643 0.175859 0.5 -0.192972 0.212263
190 1 0.0605392 0.144378 0.5 0.407999 -0.168052
191 1 0.052801 0.991209 0.5 -0.522846 -0.228916
192 1 0.945903 0.1602 0.5 0.541388 -0.567752
193 1 0.988444 0.12515 0.5 0.596587 0.534141
194 1 0.902722 0.941795 0.5 0.113333 0.152751
195 1 0.959416 0.996829 0.5 0.470503 0.198583
196 1 0.96013 0.212885 0.5 -0.19694 -0.703006
197 1 0.87336 0.0390183 0.5 -0.572421 0.716541
198 1 0.988198 0.0607411 0.5 0.0206839 0.906865
199 1 0.0494008 0.0841704 0.5 0.289947 -0.213166
200 1 0.0415401 0.028157 0.5 -0.886796 -0.269042
201 1 0.882992 0.988081 0.5 0.832532 -0.0470086
202 1 0.0665277 0.0637148 0.5 -0.326028 -0.462516
203 1 0.0506301 0.0672277 0.5 0.299023 0.431062
204 1 0.0344214 0.841323 0.5 -0.246043 -0.421392
205 1 0.925919 0.14771 0.5 0.386482 0.47475
206 1 0.213945 0.0122397 0.5 -0.611159 -0.643293
207 1 0.957956 0.268553 0.5 -0.207124 -0.732611
208 1 0.0589587 0.0494742 0.5 -0.891253 -0.20043
209 1 0.996201 0.95264 0.5 -0.210796 -0.458147
210 1 0.135366 0.211458 0.5 0.528111 0.293659
211 1 0.970458 0.0181901 0.5 0.758063 0.313641
212 1 0.0154104 0.0566648 0.5 0.352606 0.802459
213 1 0.89654 0.05849 0.5 -0.160101 0.882339
214 1 0.0741659 0.960149 0.5 -0.773585 -0.176772
215 1 0.999032 0.0627061 0.5 0.208684 0.763117
216 1 0.965838 0.140773 0.5 0.781602 0.206596
217 1 0.990997 0.976563 0.5 -0.130755 -0.638224
218 1 0.145776 0.166447 0.5 -0.258537 0.340551
219 1 0.012717 0.19047 0.5 0.813083 -0.141334
220 1 0.884652 0.792478 0.5 -0.489928 -0.559312
221 1 0.927699 0.939027 0.5 0.164325 -0.832153
222 1 0.0444102 0.124421 0.5 0.224402 -0.514468
223 1 0.964036 0.0743136 0.5 0.565396 0.636199
224 1 0.890483 0.153467 0.5 0.586779 -0.558095
225 1 0.93039 0.901793 0.5 -0.385847 -0.753692
226 1 0.00809104 0.18133 0.5 0.747043 -0.00292557
227 1 0.890279 0.847896 0.5 -0.140722 -0.856593
228 1 0.950478 0.808675 0.5 -0.103496 0.0208075
229 1 0.159667 0.0163011 0.5 -0.83836 -0.227048
230 1 0.965038 0.964154 0.5 -0.248947 -0.623672
231 1 0.986278 0.947682 0.5 -0.143391 0.390198
232 1 0.938147 0.963704 0.5 0.0559375 -0.840858
233 1 0.000272456 0.0735565 0.5 0.278663 0.562562
234 1 0.0192064 0.159024 0.5 0.0652218 -0.0136155
235 1 0.870669 0.865974 0.5 -0.803913 -0.323604
236 1 0.827287 0.153398 0.5 0.134161 -0.0974503
237 1 0.249029 0.0556751 0.5 0.822146 -0.345226
238 1 0.853517 0.138845 0.5 0.252518 -0.352047
239 1 0.147024 0.953228 0.5 -0.864813 0.304578
240 1 0.0277938 0.983276 0.5 -0.859782 -0.373363
241 1 0.939577 0.131025 0.5 0.68911 0.675673
242 1 0.933128 0.0500219 0.5 -0.0993737 0.0649874
243 1 0.954212 0.0512449 0.5 0.326086 -0.292544
244 1 0.996948 0.0438755 0.5 -0.0711225 0.308471
245 1 0.0773143 0.0277849 0.5 -0.674971 -0.313976
246 1 0.00262586 0.338317 0.5 0.710625 0.122326
247 1 0.000799733 0.973552 0.5 -0.511804 -0.539346
248 1 0.952547 0.206387 0.5 0.118122 -0.818109
249 1 0.922076 0.135895 0.5 0.503677 0.657074
250 1 0.0490129 0.0548169 0.5 -0.458867 -0.29534
251 1 0.979706 0.881759 0.5 -0.51624 -0.590024
252 1 0.943177 0.982216 0.5 -0.157211 -0.400735
253 1 0.829529 0.89783 0.5 -0.854588 -0.209529
254 1 0.92851 0.128909 0.5 0.371145 0.837768
255 1 0.929671 0.842523 0.5 -0.355258 -0.892176
256 1 0.0460597 0.983619 0.5 -0.547819 -0.634653
257 1 0.0094222 0.992216 0.5 -0.36033 -0.674559
258 1 0.0850426 0.0660375 0.5 -0.346705 -0.7391
259 1 0.0379315 0.978741 0.5 -0.860567 -0.440352
260 1 0.892559 0.906687 0.5 -0.584328 -0.689342
261 1 0.991138 0.0700189 0.5 0.110965 0.802453
262 1 0.983235 0.00362818 0.5 0.150227 0.51811
263 1 0.932878 0.993013 0.5 0.265259 -0.595275
264 1 0.928548 0.00205757 0.5 0.267867 -0.415248
265 1 0.910819 0.8985 0.5 -0.424907 -0.834561
266 1 0.897087 0.0782381 0.5 -0.151082 0.470387
267 1 0.998535 0.181813 0.5 0.523912 0.418004
268 1 0.0822488 0.105425 0.5 -0.533555 -0.626255
269 1 0.987062 0.889642 0.5 -0.261611 -0.76527
270 1 0.993938 0.926125 0.5 -0.212595 -0.897768
271 1 0.177005 0.151815 0.5 -0.97141 -0.163256
272 1 0.857696 0.0251019 0.5 0.0175414 0.665064
273 1 0.911289 0.996104 0.5 0.229484 -0.839205
274 1 0.930962 0.891309 0.5 -0.507008 -0.768363
275 1 0.973525 0.944111 0.5 0.051821 -0.384753
276 1 0.980307 0.133665 0.5 0.744409 0.445575
277 1 0.916398 0.0848662 0.5 0.300688 0.276866
278 1 0.0165426 0.116951 0.5 0.232679 0.339453
279 1 0.971988 0.98129 0.5 0 0
280 1 0.977712 0.953023 0.5 -0.0831254 -0.173644
281 1 0.062862 0.00677212 0.5 -0.510775 -0.603644
282 1 0.828976 0.135046 0.5 0.665725 -0.578202
283 1 0.983764 0.160287 0.5 0.617556 0.715259
284 1 0.955495 0.987717 0.5 0.0431651 0.519451
285 1 0.993726 0.846425 0.5 0.0331105 -0.853624
286 1 0.941119 0.23627 0.5 0.193295 -0.51773
287 1 0.968298 0.954096 0.5 0.394448 -0.659068
288 1 0.997835 0.090102 0.5 0.671752 0.323862
289 1 0.0507779 0.0438372 0.5 -0.83235 -0.17898
290 1 0.0823743 0.829418 0.5 0.319301 -0.644471
291 1 0.946194 0.123259 0.5 0.667286 0.53735
292 1 0.00847065 0.939142 0.5 0.0273597 -0.720213
293 1 0.0273561 0.885226 0.5 -0.139172 0.172939
294 1 0.0213314 0.922662 0.5 -0.459911 0.118119
295 1 0.201363 0.0703994 0.5 0.394145 -0.241296
296 1 0.00865349 0.043269 0.5 0.0948055 -0.279812
297 1 0.90102 0.844616 0.5 -0.42569 -0.820905
298 1 0.131926 0.0402905 0.5 -0.628143 -0.767595
299 1 0.813736 0.0403393 0.5 0.168731 0.827141
300 1 0.997024 0.90569 0.5 -0.8223 -0.146753
301 1 0.00894627 0.0632503 0.5 0.21766 0.807835
302 1 0.956276 0.900253 0.5 -0.52769 -0.675019
303 1 0.986548 0.105754 0.5 0.456647 -0.195883
304 1 0.996216 0.885671 0.5 -0.598724 -0.601981
305 1 0.0309945 0.084835 0.5 -0.0252264 -0.0343897
306 1 0.0330126 0.0228017 0.5 -0.626116 -0.236116
307 1 0.943193 0.0919415 0.5 0.901273 -0.182159
308 1 0.976803 0.168817 0.5 0.162881 0.70467
309 1 0.176806 0.161752 0.5 -0.672982 0.485482
310 1 0.0798026 0.00842263 0.5 -0.812422 -0.238842
311 1 0.890654 0.916262 0.5 -0.323153 -0.0990978
312 1 0.981953 0.0678916 0.5 0.124344 0.89449
313 1 0.0142511 0.906925 0.5 -0.49847 -0.802444
314 1 0.050452 0.928808 0.5 -0.862069 0.114787
315 1 0.10622 0.455766 0.5 -0.309913 0.386044
316 1 0.170091 0.271785 0.5 0.701875 -0.657165
317 1 0.109629 0.370864 0.5 0.0586575 -0.0891518
318 1 0.131372 0.343595 0.5 -0.888181 -0.00825612
319 1 0.170288 0.372282 0.5 -0.319933 0.390386
320 1 0.0405851 0.213146 0.5 0.58117 -0.521764
321 1 0.205865 0.241149 0.5 0.38648 -0.49479
322 1 0.0371177 0.173237 0.5 0.439139 -0.400243
323 1 0.0573571 0.316057 0.5 0.110437 -0.868781
324 1 0.902625 0.238782 0.5 0.535922 -0.00676707
325 1 0.206304 0.49239 0.5 -0.892591 0.252656
326 1 0.961042 0.0621914 0.5 0.54327 0.142761
327 1 0.961688 0.113844 0.5 0.481911 0.562289
328 1 0.310175 0.377204 0.5 -0.302557 0.542571
329 1 0.0983552 0.404246 0.5 -0.112501 -0.0907207
330 1 0.213026 0.454966 0.5 -0.813961 0.310504
331 1 0.943462 0.254867 0.5 0.591179 -0.566145
332 1 0.356832 0.337689 0.5 0.0534076 0.505746
333 1 0.970389 0.149808 0.5 0.378245 0.526373
334 1 0.0605592 0.189716 0.5 0.552395 -0.532873
335 1 0.144237 0.305772 0.5 -0.769585 -0.46893
336 1 0.102435 0.243393 0.5 0.154264 0.432432
337 1 0.0872585 0.260031 0.5 0.817714 -0.435304
338 1 0.139178 0.24091 0.5 0.25353 0.794428
339 1 0.1044 0.253084 0.5 0.368315 0.665794
340 1 0.245706 0.174702 0.5 -0.725141 -0.340248
341 1 0.113075 0.351275 0.5 0.221712 -0.603737
342 1 0.179442 0.388403 0.5 -0.151626 0.854916
343 1 0.204383 0.356071 0.5 0.350123 0.151177
344 1 0.0650098 0.421547 0.5 -0.470647 -0.0378448
345 1 0.0834621 0.286872 0.5 0.574765 -0.588965
346 1 0.0502226 0.289491 0.5 0.835578 -0.00297255
347 1 0.208225 0.300694 0.5 0.962457 0.0313707
348 1 0.12567 0.256009 0.5 0.0509627 0.864338
349 1 0.98029 0.151078 0.5 0.712787 0.562221
350 1 0.138847 0.360691 0.5 -0.576415 0.0514059
351 1 0.313925 0.466734 0.5 -0.0231357 -0.666719
352 1 0.968662 0.365971 0.5 0.123398 -0.690275
353 1 0.0997169 0.360293 0.5 0.652727 -0.389223
354 1 0.0678757 0.214115 0.5 -0.530574 0.0801372
355 1 0.981328 0.254424 0.5 0.307876 -0.782953
356 1 0.199631 0.216102 0.5 -0.107608 0.930333
357 1 0.222933 0.315894 0.5 0.307618 -0.465209
358 1 0.130092 0.0498816 0.5 -0.138872 -0.376592
359 1 0.0621392 0.131913 0.5 0.190796 -0.702709
360 1 0.15382 0.254283 0.5 0.305872 0.360191
361 1 0.0660299 0.297032 0.5 0.76721 -0.325706
362 1 0.020718 0.232107 0.5 0.579194 -0.781291
363 1 0.287691 0.434142 0.5 0.154209 -0.793172
364 1 0.925288 0.0569222 0.5 -0.394002 0.31346
365 1 0.925194 0.119994 0.5 0.0982578 0.944758
366 1 0.0721925 0.304875 0.5 0.57654 -0.00996817
367 1 0.98602 0.319081 0.5 -0.0130693 -0.127684
368 1 0.146876 0.414584 0.5 -0.675793 0.304646
369 1 0.0383958 0.132691 0.5 -0.0293356 0.638684
370 1 0.318468 0.33225 0.5 -0.320863 0.766666
371 1 0.0439183 0.391565 0.5 0.527422 -0.434273
372 1 0.0882237 0.224035 0.5 -0.547505 -0.175479
373 1 0.280779 0.427274 0.5 -0.0259021 -0.240927
374 1 0.977972 0.0874372 0.5 -0.237831 0.860962
375 1 0.165477 0.342245 0.5 0.0369051 0.475685
376 1 0.0176811 0.290959 0.5 0.393703 0.539683
377 1 0.181821 0.410927 0.5 -0.60836 0.634703
378 1 0.148893 0.342426 0.5 -0.863632 -0.00660635
379 1 0.941831 0.0713654 0.5 0.066116 -0.103042
380 1 0.160554 0.272213 0.5 0.70387 -0.581249
381 1 0.966039 0.277486 0.5 0.0659052 -0.4887
382 1 0.107512 0.23413 0.5 0.309281 0.63649
383 1 0.212853 0.319314 0.5 0.28536 -0.544351
384 1 0.231679 0.477466 0.5 -0.745514 -0.196107
385 1 0.0690905 0.170947 0.5 0.0384654 -0.679886
386 1 0.0506446 0.211647 0.5 -0.0375986 -0.522562
387 1 0.183421 0.257062 0.5 -0.465361 -0.60142
388 1 0.992878 0.338377 0.5 0.950253 0.138531
389 1 0.0347527 0.279758 0.5 0.581191 0.736781
390 1 0.0712523 0.334595 0.5 0.952357 0.0176275
391 1 0.015769 0.461504 0.5 -0.564005 -0.358347
392 1 0.187397 0.482252 0.5 -0.405884 0.0489477
393 1 0.0464203 0.458774 0.5 -0.294227 -0.804529
394 1 0.0796113 0.297214 0.5 0.405257 -0.0697399
395 1 0.160275 0.209258 0.5 0.0328073 -0.548917
396 1 0.0676963 0.263351 0.5 0.56008 0.0908538
397 1 0.189599 0.404553 0.5 -0.393483 0.452234
398 1 0.0184191 0.0198992 0.5 0.112519 0.508896
399 1 0.0925413 0.102841 0.5 -0.377822 -0.797587
400 1 0.166023 0.443678 0.5 -0.720694 0.385745
401 1 0.00638975 0.260242 0.5 0.859719 0.224625
402 1 0.110291 0.431159 0.5 -0.670857 -0.512093
403 1 0.189641 0.213293 0.5 0.0178469 0.940133
404 1 0.00448045 0.169343 0.5 0.200913 0.078327
405 1 0.163205 0.301553 0.5 -0.281732 -0.735002
406 1 0.143568 0.282905 0.5 -0.200031 0.0926512
407 1 0.113626 0.281552 0.5 0.0354457 0.960341
408 1 0.0304746 0.14105 0.5 -0.202288 -0.00350152
409 1 0.109474 0.261722 0.5 0.269084 0.736717
410 1 0.962559 0.437324 0.5 -0.346975 -0.359865
411 1 0.178821 0.171504 0.5 0.048136 0.593099
412 1 0.0825834 0.307298 0.5 0.588688 0.0103137
413 1 0.0398335 0.144194 0.5 0.144621 0.304049
414 1 0.201582 0.249496 0.5 -0.0807771 -0.477214
415 1 0.0536855 0.154295 0.5 0.424238 -0.100695
416 1 0.115494 0.320454 0.5 -0.152934 -0.259739
417 1 0.274237 0.296671 0.5 -0.589936 -0.141556
418 1 0.98359 0.115803 0.5 0.693041 0.0366809
419 1 0.00292802 0.190369 0.5 0.877443 0.350768
420 1 0.0600257 0.207228 0.5 -0.284769 0.0387595
421 1 0.185374 0.156411 0.5 -0.4075 0.336926
422 1 0.0835916 0.186055 0.5 0.913985 -0.129512
423 1 0.376898 0.197638 0.5 -0.970911 0.225336
424 1 0.114757 0.379471 0.5 0.103885 0.164077
425 1 0.996269 0.241854 0.5 0.469624 -0.414152
426 1 0.0753001 0.371237 0.5 0.598517 -0.743783
427 1 0.192737 0.292855 0.5 0.198514 -0.704374
428 1 0.0905812 0.251009 0.5 0.06991 -0.0569313
429 1 0.032434 0.300685 0.5 0.475082 -0.217085
430 1 0.045173 0.321712 0.5 0.179057 -0.142936
431 1 0.89126 0.123018 0.5 -0.693743 -0.396613
432 1 0.12217 0.246561 0.5 0.236617 0.914344
433 1 0.248834 0.223586 0.5 -0.314681 -0.176003
434 1 0.153026 0.323252 0.5 -0.288601 -0.0874288
435 1 0.215849 0.240656 0.5 -0.167516 0.104785
436 1 0.0869139 0.214117 0.5 -0.469864 0.234424
437 1 0.163541 0.229798 0.5 -0.166386 0.221912
438 1 0.0535759 0.181276 0.5 0.83814 -0.415371
439 1 0.929907 0.208911 0.5 -0.133638 -0.600763
440 1 0.148948 0.331948 0.5 -0.350695 -0.279096
441 1 0.286834 0.482281 0.5 0.680221 0.267107
442 1 0.0796871 0.455741 0.5 0.548965 -0.274547
443 1 0.25337 0.25975 0.5 -0.154639 0.3319
444 1 0.169718 0.207638 0.5 0.228669 0.110687
445 1 0.0443502 0.281257 0.5 0.604462 0.156223
446 1 0.235676 0.377865 0.5 0.208209 0.00101937
447 1 0.0361981 0.380509 0.5 0.271018 0.260852
448 1 0.0876374 0.438551 0.5 0.778796 0.13028
449 1 0.13979 0.269758 0.5 0.153002 0.662143
450 1 0.223258 0.343887 0.5 0.395946 -0.578804
451 1 0.0240751 0.206762 0.5 0.725749 -0.424301
452 1 0.104966 0.339685 0.5 0.355632 -0.000234048
453 1 0.0480248 0.115532 0.5 -0.18416 -0.456095
454 1 0.188503 0.166233 0.5 0.208557 0.501156
455 1 0.996072 0.0531573 0.5 0.0902775 0.426502
456 1 0.98015 0.430365 0.5 0.445761 0.117721
457 1 0.937752 0.512215 0.5 -0.319499 0.75954
458 1 0.0153602 0.395194 0.5 -0.805768 -0.0484317
459 1 0.0356673 0.262827 0.5 0.516837 0.0317126
460 1 0.196597 0.283725 0.5 0.517847 -0.780085
461 1 0.0518943 0.250883 0.5 0.899368 -0.22426
462 1 0.0853457 0.342532 0.5 0.75178 -0.356982
463 1 0.159381 0.244512 0.5 0.467345 -0.175054
464 1 0.0388434 0.290956 0.5 0.848856 0.0986201
465 1 0.0188472 0.17923 0.5 0.730969 -0.319819
466 1 0.181299 0.30659 0.5 -0.234413 -0.538325
467 1 0.0661141 0.280715 0.5 0.966606 0.10013
468 1 0.0122795 0.356131 0.5 0.436095 0.788931
469 1 0.921603 0.0455166 0.5 -0.0810035 0.819686
470 1 0.0418209 0.162227 0.5 0.370263 -0.399563
471 1 0.274049 0.357125 0.5 -0.584188 0.127589
472 1 0.337142 0.429626 0.5 0.747643 -0.114009
473 1 0.0862023 0.203311 0.5 -0.485715 -0.468843
474 1 0.197688 0.385554 0.5 -0.805321 0.534159
475 1 0.157039 0.33728 0.5 -0.540739 0.246277
476 1 0.0783481 0.361789 0.5 0.54005 -0.790139
477 1 0.319522 0.258893 0.5 0.181151 -0.740398
478 1 0.176366 0.279912 0.5 0.0547785 -0.587077
479 1 0.0441117 0.153071 0.5 0.669209 -0.18265
480 1 0.135232 0.310534 0.5 -0.589701 -0.612608
481 1 0.127893 0.266552 0.5 -0.000896806 0.868504
482 1 0.139901 0.44116 0.5 -0.741389 0.23821
483 1 0.246113 0.184615 0.5 -0.888879 -0.178094
484 1 0.142107 0.370663 0.5 -0.526764 0.643524
485 1 0.187743 0.327048 0.5 0.861219 0.307126
486 1 0.0547661 0.372958 0.5 0.697175 -0.163539
487 1 0.243326 0.35963 0.5 0.489901 -0.329593
488 1 0.933571 0.200474 0.5 0.317924 -0.754696
489 1 0.0658059 0.34424 0.5 0.905014 0.0710668
490 1 0.134745 0.287707 0.5 -0.731439 0.415939
491 1 0.968164 0.218683 0.5 0.267032 -0.425255
492 1 0.0364413 0.109444 0.5 -0.806789 -0.389904
493 1 0.869404 0.0645367 0.5 -0.56006 0.762902
494 1 0.89738 0.43481 0.5 0.0142845 -0.931445
495 1 0.137559 0.421044 0.5 -0.468802 0.0436014
496 1 0.0577618 0.0593154 0.5 -0.39587 0.167748
497 1 0.213755 0.310203 0.5 0.117395 -0.305839
498 1 0.186651 0.362093 0.5 -0.2244 -0.0184644
499 1 0.140915 0.326158 0.5 -0.648962 -0.404543
500 1 0.0320203 0.474813 0.5 -0.233737 0.142222
501 1 0.234759 0.39583 0.5 -0.482634 -0.0102124
502 1 0.0617849 0.272297 0.5 0.670983 0.424908
503 1 0.112283 0.243387 0.5 0.351504 0.655226
504 1 0.0522132 0.269055 0.5 0.43354 0.105579
505 1 0.00462002 0.409725 0.5 -0.539653 -0.594083
506 1 0.212895 0.29205 0.5 0.816717 0.302656
507 1 0.00477253 0.2244 0.5 0.883269 -0.36587
508 1 0.98661 0.262633 0.5 0.0858061 -0.339154
509 1 0.233303 0.296224 0.5 0.220545 0.880396
510 1 0.115741 0.254323 0.5 0.506109 0.840583
511 1 0.0070985 0.198932 0.5 0.880376 -0.0679687
512 1 0.195356 0.487517 0.5 -0.84369 0.208943
513 1 0.0245581 0.278242 0.5 0.58343 0.3117
514 1 0.131288 0.354349 0.5 -0.744098 -0.404169
515 1 0.123071 0.327102 0.5 -0.835045 -0.197543
516 1 0.089184 0.296088 0.5 0.904666 -0.270819
517 1 0.111299 0.332221 0.5 0.406625 0.121948
518 1 0.071889 0.271828 0.5 0.96089 -0.0157917
519 1 0.98439 0.196757 0.5 0.52912 -0.0332315
520 1 0.0586363 0.218613 0.5 -0.682864 -0.254685
521 1 0.122299 0.184451 0.5 0.593422 0.329759
522 1 0.0927587 0.268681 0.5 0.56514 -0.644959
523 1 0.976288 0.124332 0.5 0.835647 0.454878
524 1 0.114595 0.341859 0.5 -0.379323 0.121688
525 1 0.0269483 0.0409974 0.5 0.525224 0.443998
526 1 0.0102054 0.136009 0.5 0.286777 0.0142841
527 1 0.199417 0.348 0.5 0.745816 -0.117032
528 1 0.234032 0.362868 0.5 0.337778 0.0150741
529 1 0.163218 0.329788 0.5 -0.0475625 0.0750229
530 1 0.924617 0.0688799 0.5 -0.592096 -0.0525049
531 1 0.127965 0.432993 0.5 -0.28361 0.00892776
532 1 0.911489 0.215319 0.5 0.119992 -0.768147
533 1 0.0371664 0.243793 0.5 0.503502 -0.194283
534 1 0.104366 0.206353 0.5 0.685588 -0.391579
535 1 0.00544864 0.28915 0.5 0.30746 0.446296
536 1 0.0925162 0.446683 0.5 0.534114 0.0587902
537 1 0.0293124 0.196263 0.5 0.628155 -0.64839
538 1 0.0477924 0.173463 0.5 0.800386 -0.395614
539 1 0.247147 0.44219 0.5 -0.690181 0.15203
540 1 0.149221 0.444825 0.5 -0.756499 0.404133
541 1 0.123189 0.348891 0.5 -0.489505 -0.5054
542 1 0.0775346 0.261434 0.5 0.575701 -0.533443
543 1 0.0835948 0.236129 0.5 0.0337687 -0.103052
544 1 0.0325835 0.0322342 0.5 -0.545092 -0.113695
545 1 0.0826676 0.352065 0.5 0.670408 -0.618997
546 1 0.246154 0.420932 0.5 -0.662338 0.479823
547 1 0.886017 0.474979 0.5 0.197175 -0.863406
548 1 0.216522 0.416746 0.5 -0.96956 0.176681
549 1 0.111424 0.271298 0.5 -0.219047 0.943325
550 1 0.991675 0.252429 0.5 0.678235 -0.549053
551 1 0.29156 0.331238 0.5 -0.654401 -0.405297
552 1 0.0788545 0.196932 0.5 0.435955 -0.611022
553 1 0.982896 0.227001 0.5 0.495862 -0.65997
554 1 0.2067 0.3794 0.5 -0.68226 0.586351
555 1 0.0336574 0.185767 0.5 0.450563 -0.678755
556 1 0.900236 0.12005 0.5 -0.473916 -0.645056
557 1 0.114308 0.227012 0.5 0.483837 0.778977
558 1 0.302302 0.4283 0.5 0.203075 0.556474
559 1 0.119554 0.237059 0.5 0.303281 0.645161
560 1 0.0171239 0.24275 0.5 0.553961 -0.69665
561 1 0.225118 0.400803 0.5 -0.940816 -0.225859
562 1 0.354204 0.422037 0.5 0.506861 0.699378
563 1 0.358468 0.229698 0.5 -0.723409 -0.0200018
564 1 0.198623 0.300305 0.5 0.472722 0.0564604
565 1 0.10092 0.331383 0.5 0.86979 0.136163
566 1 0.967185 0.326152 0.5 0.105345 0.14938
567 1 0.0885151 0.360667 0.5 0.83277 -0.504439
568 1 0.198973 0.394935 0.5 -0.680726 0.357407
569 1 0.860753 0.176525 0.5 0.15857 -0.855551
570 1 0.950414 0.168805 0.5 -0.0499311 -0.303067
571 1 0.0553438 0.280811 0.5 0.781598 0.255163
572 1 0.123516 0.336981 0.5 -0.828485 0.0431446
573 1 0.959526 0.259279 0.5 0.00299934 -0.916136
574 1 0.134769 0.26007 0.5 0.0761565 0.711899
575 1 0.11427 0.449739 0.5 -0.0646925 0.830069
576 1 0.177372 0.483846 0.5 -0.0399138 -0.157176
577 1 0.0887922 0.278351 0.5 0.503506 -0.541384
578 1 0.0480532 0.190997 0.5 0.160567 -0.409949
579 1 0.205339 0.141812 0.5 0.357581 0.272005
580 1 0.014391 0.22429 0.5 0.760652 -0.515489
581 1 0.118897 0.367632 0.5 -0.172871 -0.786906
582 1 0.186623 0.472455 0.5 -0.657791 0.431184
583 1 0.942296 0.207361 0.5 0.357022 -0.746171
584 1 0.9901 0.151429 0.5 0.719526 0.524941
585 1 0.145337 0.187933 0.5 -0.731168 0.156187
586 1 0.131643 0.32153 0.5 -0.632517 -0.328161
587 1 0.832551 0.228529 0.5 -0.301673 -0.647151
588 1 0.975799 0.142096 0.5 0.887954 0.353313
589 1 0.283188 0.452186 0.5 0.149209 0.118737
590 1 0.10438 0.224466 0.5 0.206332 0.713387
591 1 0.0760869 0.325439 0.5 0.720413 -0.282712
592 1 0.163191 0.379116 0.5 0.0962803 0.221261
593 1 0.148491 0.244926 0.5 0.357484 0.496328
594 1 0.127113 0.294198 0.5 -0.743539 0.36443
595 1 0.203202 0.319495 0.5 0.417077 0.245276
596 1 0.0303959 0.213744 0.5 0.727833 -0.518613
597 1 0.275029 0.161773 0.5 -0.63635 -0.105346
598 1 0.969077 0.0828699 0.5 0.108944 0.618082
599 1 0.00177271 0.154429 0.5 0.174264 -0.151279
600 1 0.138108 0.194574 0.5 0.209541 0.559525
601 1 0.985581 0.142886 0.5 0.959945 0.229688
602 1 0.103313 0.415527 0.5 -0.514442 -0.178511
603 1 0.180945 0.270057 0.5 -0.117841 -0.574367
604 1 0.974459 0.310019 0.5 0.2553 0.0582526
605 1 0.171613 0.310043 0.5 -0.208664 -0.74998
606 1 0.00599024 0.114509 0.5 0.201472 0.136631
607 1 0.218365 0.301262 0.5 0.498789 0.276596
608 1 0.967641 0.267942 0.5 0.100097 -0.818637
609 1 0.0990265 0.295179 0.5 0.303653 0.349774
610 1 0.0661199 0.372833 0.5 0.624631 -0.420988
611 1 0.157726 0.417443 0.5 -0.652984 0.525582
612 1 0.011723 0.152328 0.5 0.268556 -0.481364
613 1 0.933455 0.139536 0.5 0.564287 0.646081
614 1 0.18967 0.275679 0.5 -0.114439 -0.712221
615 1 0.0649014 0.324596 0.5 0.680938 -0.490346
616 1 0.985002 0.245497 0.5 0.275369 -0.880201
617 1 0.876885 0.136995 0.5 0.409205 -0.669733
618 1 0.271696 0.402722 0.5 -0.624714 0.524589
619 1 0.973628 0.247695 0.5 0.425885 -0.608858
620 1 0.2254 0.380573 0.5 0 0
621 1 0.204123 0.451922 0.5 -0.807 0.335209
622 1 0.183843 0.420471 0.5 -0.501976 0.376317
623 1 0.208173 0.400455 0.5 -0.930057 -0.186178
624 1 0.143805 0.293808 0.5 -0.462903 -0.119087
625 1 0.0145976 0.279964 0.5 0.54464 0.27599
626 1 0.145179 0.232754 0.5 -0.0382346 0.907488
627 1 0.16665 0.281896 0.5 0.408888 -0.623115
628 1 0.0471631 0.202883 0.5 0.0820829 -0.141156
629 1 0.0957035 0.305325 0.5 0.222682 -0.136317