ITEM: TIMESTEP
0
ITEM: NUMBER OF ATOMS
9945
ITEM: BOX BOUNDS pp pp pp
-5.8359999999999999e+01 5.8359999999999999e+01
-5.8359999999999999e+01 5.8359999999999999e+01
-5.0000000000000000e-01 5.0000000000000000e-01
ITEM: ATOMS id type xs ys zs c_002[1] c_002[2]
1 1 0.163762 0.917661 0.5 0.120789 -0.36552
2 1 0.784681 0.836458 0.5 -0.73392 -0.243402
3 1 0.131308 0.899718 0.5 -0.558052 0.155822
4 1 0.987397 0.0177854 0.5 0.0526045 0.115189
5 1 0.014704 0.0820964 0.5 -0.283828 0.221675
6 1 0.248134 0.84622 0.5 0.349218 -0.890879
7 1 0.956647 0.285827 0.5 0.830407 0.201304
8 1 0.106298 0.00699013 0.5 0.773077 -0.0420134
9 1 0.105942 0.853997 0.5 0.230943 0.604428
10 1 0.0233699 0.684092 0.5 -0.18372 -0.539833
11 1 0.97248 0.780306 0.5 -0.589286 0.204952
12 1 0.134257 0.0492904 0.5 0.422373 0.701538
13 1 0.982087 0.962573 0.5 -0.0659827 0.406149
14 1 0.0520178 0.266102 0.5 -0.342534 0.286328
15 1 0.969651 0.0168968 0.5 -0.792387 -0.347849
16 1 0.00437607 0.208319 0.5 -0.862153 -0.268054
17 1 0.101914 0.110887 0.5 -0.899824 0.241054
18 1 0.184897 0.683714 0.5 -0.352486 0.116077
19 1 0.163148 0.171835 0.5 -0.644293 -0.245207
20 1 0.214759 0.721751 0.5 -0.0540925 0.0551154
21 1 0.0836225 0.837586 0.5 -0.701714 -0.162699
22 1 0.0416297 0.752101 0.5 -0.928903 0.0569047
23 1 0.989469 0.90352 0.5 -0.964487 -0.194038
24 1 0.093342 0.167219 0.5 -0.211612 -0.0729795
25 1 0.194946 0.829768 0.5 0.615148 -0.226815
26 1 0.0952621 0.931292 0.5 0.554087 -0.424086
27 1 0.0495201 0.807179 0.5 0.127633 0.328421
28 1 0.26125 0.215551 0.5 -0.874477 0.204838
29 1 0.0897816 0.197562 0.5 -0.711706 -0.102624
30 1 0.00064918 0.634286 0.5 -0.627727 0.159231
31 1 0.0567451 0.89052 0.5 0.1302 -0.213718
32 1 0.165129 0.0882466 0.5 0.471265 -0.210316
33 1 0.107906 0.912392 0.5 -0.327305 0.659051
34 1 0.960592 0.0889077 0.5 -0.186879 -0.809285
35 1 0.0464981 0.00820619 0.5 0.355916 -0.845024
36 1 0.0465162 0.273963 0.5 0.28308 -0.208401
37 1 0.023789 0.804061 0.5 0.456795 -0.21766
38 1 0.074287 0.103565 0.5 0.0401461 -0.167146
39 1 0.0908706 0.233512 0.5 -0.175639 -0.466193
40 1 0.0529009 0.836818 0.5 0.0520025 0.430066
41 1 0.92463 0.854933 0.5 -0.0869445 -0.735065
42 1 0.138149 0.130536 0.5 -0.830392 0.0209393
43 1 0.237929 0.194773 0.5 -0.629496 -0.0788042
44 1 0.0680999 0.746858 0.5 -0.751645 0.243181
45 1 0.141474 0.0428807 0.5 0.140351 0.493813
46 1 0.757866 0.752517 0.5 0.334509 -0.301778
47 1 0.101934 0.845151 0.5 0.474361 0.230162
48 1 0.75539 0.906838 0.5 -0.449802 0.715952
49 1 0.965661 0.8525 0.5 0.951293 -0.0501441
50 1 0.958627 0.917821 0.5 -0.738116 -0.333059
51 1 0.0442742 0.874048 0.5 -0.1776 0.762356
52 1 0.195225 0.0461497 0.5 -0.962962 -0.0152323
53 1 0.765242 0.742532 0.5 -0.0384925 -0.618505
54 1 0.896532 0.729562 0.5 0.0307796 -0.526559
55 1 0.0674958 0.873338 0.5 0.0632359 0.0570787
56 1 0.234257 0.966727 0.5 0.802706 -0.0582583
57 1 0.943155 0.905353 0.5 -0.401312 -0.816931
58 1 0.0357488 0.788827 0.5 -0.457021 0.450881
59 1 0.159868 0.89614 0.5 -0.53288 -0.283629
60 1 0.111665 0.969625 0.5 -0.476115 0.00814215
61 1 0.12077 0.122344 0.5 -0.81094 0.0930304
62 1 0.166949 0.985955 0.5 -0.284188 -0.697957
63 1 0.0437971 0.919694 0.5 -0.75829 0.048899
64 1 0.0251321 0.919045 0.5 -0.424706 -0.446363
65 1 0.000205793 0.897917 0.5 -0.410497 -0.337325
66 1 0.228127 0.166193 0.5 -0.83534 -0.430528
67 1 0.984258 0.845314 0.5 -0.0307225 0.585666
68 1 0.157256 0.807422 0.5 0.372299 -0.694661
69 1 0.0254292 0.590275 0.5 -0.0814303 0.468345
70 1 0.909869 0.72843 0.5 0.433173 -0.405848
71 1 0.185108 0.91276 0.5 0.506077 -0.539474
72 1 0.956047 0.135712 0.5 0.411815 0.0321486
73 1 0.123097 0.907094 0.5 -0.109291 0.51008
74 1 0.14829 0.117525 0.5 -0.409195 -0.201461
75 1 0.202121 0.923236 0.5 0.706421 -0.309983
76 1 0.135345 0.854912 0.5 -0.330703 0.620863
77 1 0.103827 0.961974 0.5 0.595833 -0.223655
78 1 0.946998 0.988832 0.5 -0.765463 -0.516864
79 1 0.0529178 0.938415 0.5 0.51193 0.203974
80 1 0.219001 0.181734 0.5 -0.948732 0.142861
81 1 0.147938 0.0947563 0.5 -0.41159 0.271317
82 1 0.153153 0.0699748 0.5 0.821329 -0.289728
83 1 0.319218 0.0128297 0.5 0.513467 -0.772113
84 1 0.919627 0.165205 0.5 0.287518 -0.645616
85 1 0.018981 0.880376 0.5 -0.614371 0.0934577
86 1 0.101811 0.804276 0.5 -0.239069 0.0737908
87 1 0.124571 0.928456 0.5 0.106735 -0.770552
88 1 0.983092 0.878919 0.5 -0.516312 -0.261833
89 1 0.937521 0.840125 0.5 -0.284698 -0.664218
90 1 0.290672 0.0176272 0.5 0.306626 -0.894147
91 1 0.924786 0.401094 0.5 0.90171 0.22162
92 1 0.751453 0.212697 0.5 -0.743473 -0.604194
93 1 0.149688 0.968569 0.5 -0.100234 -0.680412
94 1 0.0188009 0.0330864 0.5 0.512518 -0.11024
95 1 0.0705588 0.994735 0.5 0.874134 -0.0370308
96 1 0.922431 0.818846 0.5 -0.302972 -0.457662
97 1 0.641544 0.142421 0.5 -0.554282 -0.676669
98 1 0.944036 0.821827 0.5 0.0705363 -0.676021
99 1 0.248851 0.104281 0.5 -0.318207 -0.143612
100 1 0.00188323 0.131394 0.5 -0.785022 0.130962
101 1 0.078082 0.864588 0.5 -0.304523 0.679165
102 1 0.877246 0.857489 0.5 -0.699568 0.0188283
103 1 0.113259 0.959942 0.5 -0.0538481 -0.360223
104 1 0.0821554 0.151533 0.5 -0.678421 0.164543
105 1 0.0916407 0.881463 0.5 0.517902 -0.138805
106 1 0.0232159 0.0241976 0.5 0.871867 -0.385376
107 1 0.986016 0.791718 0.5 0.813904 0.457982
108 1 0.134136 0.845214 0.5 -0.682048 0.546193
109 1 0.855565 0.812094 0.5 0.0535837 0.10412
110 1 0.899609 0.932106 0.5 -0.391105 -0.0816381
111 1 0.940291 0.796708 0.5 -0.343452 -0.0691553
112 1 0.804945 0.909984 0.5 -0.130996 -0.277447
113 1 0.324219 0.222464 0.5 -0.554286 -0.662846
114 1 0.955133 0.99353 0.5 -0.379914 -0.618634
115 1 0.102774 0.833886 0.5 -0.0107273 0.0252897
116 1 0.187088 0.0408012 0.5 -0.862721 -0.393997
117 1 0.0397479 0.0484499 0.5 0.12547 0.301555
118 1 0.00544971 0.825423 0.5 0.15656 -0.667958
119 1 0.979169 0.800019 0.5 0.267926 0.64354
120 1 0.0983623 0.918147 0.5 -0.444221 -0.24164
121 1 0.0241199 0.964784 0.5 -0.156868 0.253932
122 1 0.0846613 0.0670752 0.5 -0.190934 0.682218
123 1 0.11807 0.865231 0.5 -0.472281 0.62447
124 1 0.702697 0.776633 0.5 0.654452 -0.103623
125 1 0.833149 0.953099 0.5 0.0490235 0.187336
126 1 0.0635702 0.637618 0.5 0.0233627 0.369943
127 1 0.980345 0.598106 0.5 0.306033 0.558153
128 1 0.124218 0.678606 0.5 0.427225 -0.040503
129 1 0.202525 0.0885744 0.5 -0.0377155 0.123957
130 1 0.238789 0.184444 0.5 -0.786825 -0.445966
131 1 0.0990802 0.0317268 0.5 0.523869 0.721455
132 1 0.0409097 0.861202 0.5 -0.121824 0.667332
133 1 0.0197253 0.795665 0.5 0.544677 0.0811113
134 1 0.0205532 0.831194 0.5 0.387589 -0.416031
135 1 0.117189 0.91571 0.5 0.134301 0.625273
136 1 0.012548 0.0243341 0.5 0.873693 -0.409436
137 1 0.938847 0.877705 0.5 -0.27409 -0.847909
138 1 0.195519 0.858217 0.5 -0.0126423 -0.903053
139 1 0.956275 0.794941 0.5 0.196381 0.319771
140 1 0.325272 0.81859 0.5 -0.0318443 -0.484193
141 1 0.0700514 0.0520268 0.5 0.118282 0.0731524
142 1 0.978625 0.74103 0.5 -0.466581 0.705622
143 1 0.137776 0.060174 0.5 0.784028 0.45108
144 1 0.182146 0.89479 0.5 0.0176965 -0.353778
145 1 0.0160705 0.665622 0.5 -0.330464 -0.409207
146 1 0.967641 0.814367 0.5 0.0319096 0.262927
147 1 0.256679 0.155244 0.5 -0.427654 -0.810566
148 1 0.0678844 0.910378 0.5 0.440342 0.544123
149 1 0.986714 0.970834 0.5 -0.00300675 0.316373
150 1 0.22808 0.998183 0.5 0.34279 -0.258082
151 1 0.144012 0.052045 0.5 0.457611 0.290182
152 1 0.0655573 0.0823267 0.5 -0.106547 0.44343
153 1 0.0174397 0.911431 0.5 -0.194528 -0.61604
154 1 0.858519 0.822082 0.5 -0.0119231 0.426878
155 1 0.171411 0.898638 0.5 -0.540469 -0.223004
156 1 0.916846 0.895732 0.5 -0.943579 -0.107199
157 1 0.99849 0.909082 0.5 -0.663713 -0.636556
158 1 0.0845725 0.102262 0.5 -0.283965 0.204946
159 1 0.967453 0.726056 0.5 -0.483804 0.633634
160 1 0.92367 0.864545 0.5 -0.41333 -0.625907
161 1 0.0306001 0.114073 0.5 -0.543778 -0.0736617
162 1 0.798692 0.689785 0.5 -0.701698 -0.452036
163 1 0.907077 0.958962 0.5 -0.777073 -0.444205
164 1 0.0204243 0.984126 0.5 0.918487 -0.109643
165 1 0.968679 0.697582 0.5 0.588473 0.75906
166 1 0.0295545 0.898856 0.5 -0.0822964 0.0682357
167 1 0.221264 0.0520746 0.5 -0.689208 -0.548743
168 1 0.946751 0.788121 0.5 -0.266009 0.268661
169 1 0.0773796 0.950406 0.5 0.885827 -0.0275722
170 1 0.203546 0.890943 0.5 0.143843 -0.760466
171 1 0.111962 0.93986 0.5 0.408436 -0.857774
172 1 0.101494 0.995431 0.5 0.815467 0.0945686
173 1 0.0747368 0.932849 0.5 -0.350034 -0.199107
174 1 0.138682 0.864425 0.5 -0.0745301 0.60002
175 1 0.0338695 0.934009 0.5 -0.841047 -0.0268364
176 1 0.0267844 0.940163 0.5 -0.141622 -0.280806
177 1 0.179217 0.973139 0.5 -0.435072 -0.584937
178 1 0.0728955 0.834045 0.5 -0.43821 0.12535
179 1 0.365607 0.840175 0.5 -0.272996 0.607468
180 1 0.111374 0.156974 0.5 -0.833777 -0.0603011
181 1 0.0141467 0.678581 0.5 -0.452311 -0.671595
182 1 0.00528445 0.975357 0.5 0.156116 -0.0915642
183 1 0.126372 0.741255 0.5 -0.886005 0.192955
184 1 0.0413059 0.832833 0.5 0.138666 0.121574
185 1 0.169971 0.90807 0.5 0.329805 -0.347569
186 1 0.156439 0.260618 0.5 -0.927405 -0.202599
187 1 0.0101301 0.788521 0.5 -0.553728 -0.0101691
188 1 0.0978586 0.872539 0.5 0.391583 0.751219
189 1 0.102728 0.941515 0.5 0.516456 -0.574634
190 1 0.118049 0.00593126 0.5 0.617166 0.322763
191 1 0.0125178 0.835986 0.5 0.167712 0.200405
192 1 0.0389424 0.0875167 0.5 -0.700779 -0.432422
193 1 0.0106314 0.983639 0.5 0.534731 0.336153
194 1 0.850303 0.899501 0.5 -0.58966 0.0661662
195 1 0.0882236 0.910389 0.5 0.184364 -0.558425
196 1 0.0852045 0.122049 0.5 -0.827608 -0.335522
197 1 0.924583 0.0177541 0.5 -0.752198 -0.583022
198 1 0.0310488 0.00221394 0.5 0.48525 -0.448937
199 1 0.0724115 0.94206 0.5 0.333964 -0.196051
200 1 0.10697 0.863511 0.5 -0.0616991 0.785311
201 1 0.981148 0.898299 0.5 -0.919325 -0.283742
202 1 0.126658 0.984006 0.5 0.239306 -0.225844
203 1 0.189123 0.229482 0.5 -0.587709 -0.372913
204 1 0.925811 0.715388 0.5 -0.33743 -0.0244851
205 1 0.992156 0.11756 0.5 -0.644795 0.0227008
206 1 0.345442 0.832714 0.5 0.108506 0.341136
207 1 0.794364 0.105647 0.5 -0.698197 -0.642734
208 1 0.156614 0.156381 0.5 -0.342008 -0.736841
209 1 0.165792 0.0111179 0.5 0.451828 -0.00290199
210 1 0.222127 0.969801 0.5 0.202189 -0.513543
211 1 0.0778573 0.0305463 0.5 0.468558 -0.696285
212 1 0.043267 0.939387 0.5 -0.384642 0.0275391
213 1 0.929746 0.977203 0.5 -0.419308 -0.829714
214 1 0.146208 0.808602 0.5 0.329621 -0.181971
215 1 0.906547 0.94912 0.5 -0.642689 -0.56847
216 1 0.120534 0.087882 0.5 0.367131 -0.0179806
217 1 0.107965 0.79638 0.5 -0.14332 0.52881
218 1 0.197486 0.233941 0.5 -0.878502 -0.37718
219 1 0.148006 0.104449 0.5 -0.871404 0.00428676
220 1 0.920649 0.650773 0.5 0.342871 0.500442
221 1 0.875853 0.904188 0.5 -0.15839 0.0357402
222 1 0.201479 0.171227 0.5 -0.80927 0.0074296
223 1 0.136867 0.0785949 0.5 0.426051 0.701448
224 1 0.979278 0.180382 0.5 -0.46495 -0.72049
225 1 0.876306 0.844443 0.5 -0.38562 0.0483933
226 1 0.147124 0.193692 0.5 0.00886769 -0.215087
227 1 0.891579 0.697438 0.5 -0.106622 0.0918133
228 1 0.86971 0.746416 0.5 -0.673791 0.40953
229 1 0.138923 0.108878 0.5 -0.701372 -0.042079
230 1 0.915938 0.955096 0.5 -0.888528 -0.390301
231 1 0.09561 0.852537 0.5 0.0720117 0.267148
232 1 0.0567758 0.845865 0.5 -0.0202082 0.439734
233 1 0.184974 0.830283 0.5 0.554378 -0.568607
234 1 0.178902 0.221377 0.5 -0.473196 -0.360421
235 1 0.76786 0.859531 0.5 -0.223901 0.115188
236 1 0.0702253 0.024588 0.5 0.292295 -0.601617
237 1 0.243321 0.700388 0.5 -0.749909 0.051549
238 1 0.182912 0.160675 0.5 0.114151 0.714739
239 1 0.250346 0.707229 0.5 -0.249783 -0.47957
240 1 0.145802 0.990471 0.5 -0.178316 -0.646222
241 1 0.992416 0.127539 0.5 -0.709697 0.443296
242 1 0.0897281 0.890841 0.5 0.346654 -0.262485
243 1 0.0815499 0.994958 0.5 0.918002 -0.155444
244 1 0.180955 0.00017 0.5 -0.356811 -0.793944
245 1 0.0500569 0.99747 0.5 0.639658 -0.532244
246 1 0.851227 0.19122 0.5 -0.507095 -0.372934
247 1 0.115161 0.901751 0.5 0.153525 0.270534
248 1 0.0798482 0.0574176 0.5 -0.36981 0.419325
249 1 0.0502764 0.977172 0.5 0.927949 -0.14304
250 1 0.222487 0.0414763 0.5 -0.634024 -0.69852
251 1 0.991288 0.874081 0.5 -0.625975 -0.0725658
252 1 0.125327 0.028062 0.5 0.578537 0.579
253 1 0.831237 0.83354 0.5 -0.331382 0.922784
254 1 0.915636 0.0208438 0.5 -0.436981 -0.482512
255 1 0.903694 0.736089 0.5 0.175586 -0.619175
256 1 0.20514 0.854394 0.5 0.137455 -0.55748
257 1 0.093615 0.899696 0.5 0.633486 0.232178
258 1 0.27068 0.178594 0.5 -0.739761 -0.510968
259 1 0.166135 0.945224 0.5 0.200577 -0.646376
260 1 0.951519 0.86523 0.5 0.257448 -0.525645
261 1 0.0814604 0.244343 0.5 -0.11682 -0.130319
262 1 0.113488 0.979765 0.5 -0.0506086 0.702717
263 1 0.851356 0.865148 0.5 -0.631857 0.348144
264 1 0.0680458 0.862132 0.5 -0.360175 0.67628
265 1 0.978274 0.6726 0.5 -0.226348 0.480153
266 1 0.953758 0.949087 0.5 -0.637047 -0.559608
267 1 0.988718 0.0914623 0.5 -0.412822 -0.162156
268 1 0.197171 0.11891 0.5 0.137857 -0.693119
269 1 0.0234416 0.74209 0.5 -0.821656 -0.318626
270 1 0.0603239 0.752625 0.5 -0.938699 0.0704232
271 1 0.24002 0.0988221 0.5 -0.244419 0.152965
272 1 0.110984 0.10521 0.5 -0.791715 0.440486
273 1 0.953541 0.889979 0.5 -0.652785 -0.370179
274 1 0.804485 0.879772 0.5 -0.858634 -0.288751
275 1 0.991714 0.883846 0.5 -0.931147 -0.082125
276 1 0.0716719 0.920817 0.5 0.426696 0.684884
277 1 0.0173981 0.0151629 0.5 0.746973 -0.318792
278 1 0.0843651 0.0390333 0.5 0.548119 -0.00230541
279 1 0.0392255 0.851125 0.5 0.130781 0.911694
280 1 0.111111 0.815642 0.5 -0.208589 0.42474
281 1 0.0593179 0.868224 0.5 -0.161856 0.487246
282 1 0.0653962 0.117377 0.5 -0.789968 -0.222206
283 1 0.0484755 0.0738172 0.5 -0.550215 -0.602702
284 1 0.903484 0.869655 0.5 -0.754512 0.293456
285 1 0.975001 0.589458 0.5 -0.0480484 0.529923
286 1 0.942427 0.147699 0.5 -0.079385 -0.408089
287 1 0.0364164 0.841956 0.5 0.333001 0.636948
288 1 0.07336 0.146316 0.5 -0.713669 -0.323498
289 1 0.148101 0.979642 0.5 -0.615258 -0.744261
290 1 0.0333705 0.758114 0.5 -0.672447 0.585497
291 1 0.0816646 0.0214921 0.5 -0.14525 -0.362972
292 1 0.0362699 0.880815 0.5 -0.623212 0.716453
293 1 0.989014 0.665699 0.5 -0.24162 -0.302572
294 1 0.886423 0.917926 0.5 -0.279959 0.751909
295 1 0.210713 0.0818417 0.5 -0.49125 -0.124356
296 1 0.0670413 0.891272 0.5 0.732617 0.18101
297 1 0.733556 0.805242 0.5 -0.870812 0.0548061
298 1 0.133033 0.909257 0.5 -0.173768 0.293461
299 1 0.884271 0.0920288 0.5 -0.590535 -0.630048
300 1 0.0352637 0.870865 0.5 -0.297446 0.614068
301 1 0.0484612 0.136545 0.5 -0.544867 -0.29953
302 1 0.917476 0.7342 0.5 0.47966 0.108081
303 1 0.14578 0.181108 0.5 -0.833889 -0.322794
304 1 0.979737 0.827104 0.5 0.330918 0.805365
305 1 0.216171 0.22695 0.5 -0.0470608 0.0978048
306 1 0.00711538 0.94507 0.5 -0.488859 0.0726552
307 1 0.15673 0.987157 0.5 -0.0267327 -0.801574
308 1 0.0393594 0.109851 0.5 -0.675499 -0.426681
309 1 0.288029 0.180549 0.5 0.0543169 -0.820931
310 1 0.225817 0.87716 0.5 0.41158 -0.440178
311 1 0.980223 0.909048 0.5 -0.795803 -0.38698
312 1 0.0640333 0.900384 0.5 0.537641 0.0636159
313 1 0.878232 0.798211 0.5 -0.26091 0.567447
314 1 0.0985751 0.780364 0.5 -0.666566 0.606055
315 1 0.950107 0.35616 0.5 0.747965 0.17892
316 1 0.210585 0.450354 0.5 0.628366 0.397941
317 1 0.0913124 0.25448 0.5 -0.145085 -0.19314
318 1 0.131612 0.322081 0.5 -0.433014 -0.442757
319 1 0.132583 0.312052 0.5 -0.827958 -0.0178224
320 1 0.292946 0.237516 0.5 -0.278887 -0.250894
321 1 0.18797 0.146368 0.5 0.180612 -0.499758
322 1 0.219908 0.161065 0.5 -0.874087 -0.417908
323 1 0.0808536 0.292765 0.5 0.195359 -0.76307
324 1 0.995578 0.108344 0.5 0.0215487 -0.420306
325 1 0.23222 0.367167 0.5 -0.582781 -0.532291
326 1 0.0474885 0.0838463 0.5 -0.847818 -0.490085
327 1 0.973176 0.984465 0.5 -0.128992 0.705255
328 1 0.35707 0.111619 0.5 0.277772 -0.843577
329 1 0.0323449 0.292794 0.5 0.397621 -0.3998
330 1 0.427432 0.288203 0.5 0.594166 0.708203
331 1 0.947826 0.218893 0.5 -0.124793 0.253866
332 1 0.509418 0.119957 0.5 0.058036 0.219127
333 1 0.158744 0.217828 0.5 -0.104918 -0.67799
334 1 0.188502 0.27245 0.5 0.22115 0.597725
335 1 0.041753 0.26225 0.5 -0.337799 0.688227
336 1 0.186998 0.308878 0.5 -0.291151 0.247011
337 1 0.106406 0.327745 0.5 0.533387 0.557145
338 1 0.139065 0.225185 0.5 -0.871059 -0.16087
339 1 0.284403 0.108019 0.5 0.346634 -0.480548
340 1 0.324617 0.0303517 0.5 0.20742 -0.549846
341 1 0.94478 0.301404 0.5 0.563676 0.44027
342 1 0.0666582 0.335317 0.5 -0.220707 0.458954
343 1 0.101448 0.316443 0.5 0.44735 -0.248162
344 1 0.905277 0.28058 0.5 -0.771029 0.591904
345 1 0.231314 0.1276 0.5 -0.360583 0.582233
346 1 0.0609361 0.261242 0.5 -0.650324 -0.113997
347 1 0.24535 0.436945 0.5 0.594137 -0.591716
348 1 0.0833733 0.2826 0.5 0.356527 -0.847002
349 1 0.0938528 0.116774 0.5 -0.904008 0.0762298
350 1 0.239906 0.334633 0.5 -0.358875 -0.594453
351 1 0.345976 0.386277 0.5 0.711179 0.432643
352 1 0.789573 0.21805 0.5 -0.309943 -0.567907
353 1 0.997718 0.345737 0.5 0.683132 -0.276136
354 1 0.311384 0.156092 0.5 0.0702318 -0.659486
355 1 0.984512 0.135342 0.5 -0.505482 0.401583
356 1 0.300496 0.0162447 0.5 0.170382 -0.92556
357 1 0.198557 0.359176 0.5 -0.098901 -0.86825
358 1 0.227964 0.0828428 0.5 -0.679013 -0.0026975
359 1 0.202088 0.160626 0.5 -0.700088 -0.578862
360 1 0.25869 0.366111 0.5 -0.247075 -0.604418
361 1 0.150157 0.365928 0.5 -0.188348 -0.466109
362 1 0.843463 0.221197 0.5 -0.575713 -0.161496
363 1 0.459498 0.224402 0.5 0.411736 -0.63363
364 1 0.208888 0.95215 0.5 0.519955 0.56583
365 1 0.0302571 0.104442 0.5 -0.861305 -0.114507
366 1 0.31385 0.336356 0.5 -0.515478 -0.754658
367 1 0.00829256 0.230408 0.5 -0.195425 0.83064
368 1 0.215439 0.430044 0.5 -0.190718 0.316249
369 1 0.0780058 0.913602 0.5 0.0744869 0.13239
370 1 0.284751 0.279282 0.5 -0.0662979 -0.607002
371 1 0.0986927 0.202395 0.5 -0.811409 -0.485989
372 1 0.126491 0.261302 0.5 -0.304488 -0.639152
373 1 0.425827 0.489894 0.5 -0.547076 0.438579
374 1 0.0074681 0.999002 0.5 0.660875 0.238306
375 1 0.00839682 0.307152 0.5 0.106257 0.470224
376 1 0.102683 0.143132 0.5 -0.609543 -0.100659
377 1 0.252797 0.399803 0.5 0.714409 -0.355667
378 1 0.2444 0.264783 0.5 -0.265401 -0.552965
379 1 0.0859597 0.919852 0.5 0.0874588 -0.704827
380 1 0.191086 0.289481 0.5 0.404374 -0.901813
381 1 0.914692 0.156104 0.5 -0.508699 -0.247921
382 1 0.205667 0.317441 0.5 -0.414459 -0.635007
383 1 0.205503 0.425764 0.5 -0.800399 -0.0596841
384 1 0.134877 0.350016 0.5 -0.618225 -0.724483
385 1 0.967132 0.259354 0.5 0.0345785 0.335041
386 1 0.0929059 0.281521 0.5 0.35419 -0.858784
387 1 0.252549 0.260103 0.5 -0.395155 -0.313313
388 1 0.0308561 0.177169 0.5 -0.115697 0.383669
389 1 0.988914 0.309481 0.5 0.00686723 -0.0388349
390 1 0.201349 0.336572 0.5 -0.305648 -0.610076
391 1 0.954022 0.364989 0.5 0.655891 0.0334273
392 1 0.248251 0.50975 0.5 0.627422 -0.741619
393 1 0.897525 0.23528 0.5 0.148205 0.240047
394 1 0.0420433 0.35366 0.5 0.872449 0.184991
395 1 0.301397 0.200082 0.5 0.338726 -0.395948
396 1 0.078102 0.205333 0.5 -0.461852 -0.100231
397 1 0.969576 0.314902 0.5 0.465833 0.230011
398 1 0.237524 0.849052 0.5 0.273572 -0.859567
399 1 0.197692 0.960118 0.5 -0.453212 0.215778
400 1 0.105304 0.479043 0.5 0.696613 0.456848
401 1 0.0368727 0.121735 0.5 -0.481156 0.0598497
402 1 0.204896 0.414418 0.5 -0.879807 -0.260422
403 1 0.266704 0.139724 0.5 -0.24375 -0.556381
404 1 0.215726 0.315089 0.5 -0.221925 -0.382897
405 1 0.245225 0.392366 0.5 -0.123235 -0.0411675
406 1 0.19716 0.296985 0.5 0.312936 -0.648044
407 1 0.0964144 0.270382 0.5 0.103917 -0.811928
408 1 0.191957 0.132213 0.5 0.285214 -0.0278842
409 1 0.309483 0.118287 0.5 -0.236007 -0.0100635
410 1 0.844989 0.251727 0.5 -0.50165 -0.360736
411 1 0.27497 0.107878 0.5 -0.102417 -0.320569
412 1 0.0682435 0.345089 0.5 0.124023 0.354246
413 1 0.164717 0.183056 0.5 -0.791727 0.362584
414 1 0.193806 0.177335 0.5 -0.399413 -0.267943
415 1 0.155504 0.165797 0.5 -0.72323 -0.590956
416 1 0.136762 0.185467 0.5 -0.796429 -0.479844
417 1 0.331485 0.317006 0.5 -0.111838 -0.282556
418 1 0.11207 0.136699 0.5 -0.855344 0.319131
419 1 0.110934 0.178291 0.5 -0.850822 -0.281729
420 1 0.168523 0.246932 0.5 -0.638248 -0.272609
421 1 0.216498 0.00430433 0.5 -0.97421 -0.0690442
422 1 0.121599 0.15197 0.5 -0.870599 -0.405427
423 1 0.260602 0.0466208 0.5 -0.554433 -0.214375
424 1 0.0791888 0.367045 0.5 0.435573 -0.111139
425 1 0.951052 0.294122 0.5 0.720884 0.497347
426 1 0.0685671 0.211974 0.5 -0.555626 0.0567251
427 1 0.179959 0.343174 0.5 -0.0654014 -0.311884
428 1 0.299415 0.133546 0.5 -0.328259 -0.600836
429 1 0.0396053 0.230034 0.5 0.0166182 -0.279223
430 1 0.0220099 0.196501 0.5 0.154248 0.400007
431 1 0.00244586 0.02511 0.5 0.880995 -0.302013
432 1 0.11467 0.381611 0.5 -0.407612 0.121184
433 1 0.27352 0.244269 0.5 -0.486722 -0.15605
434 1 0.135571 0.338542 0.5 -0.459008 -0.614886
435 1 0.223094 0.131991 0.5 -0.320034 -0.503195
436 1 0.266736 0.150551 0.5 -0.43715 -0.672581
437 1 0.290906 0.0371949 0.5 0.383188 -0.292809
438 1 0.169073 0.217109 0.5 0.0933206 -0.0713164
439 1 0.0930527 0.127785 0.5 -0.900828 -0.380628
440 1 0.286406 0.38784 0.5 -0.184461 -0.141198
441 1 0.165891 0.486503 0.5 0.836175 0.0164382
442 1 0.936339 0.178873 0.5 -0.0679288 -0.334601
443 1 0.241943 0.314343 0.5 -0.431976 -0.671061
444 1 0.225966 0.00973015 0.5 -0.370993 -0.683109
445 1 0.96016 0.194251 0.5 -0.601475 0.245919
446 1 0.279363 0.422742 0.5 0.846287 -0.189681
447 1 0.8508 0.170323 0.5 -0.837126 -0.283069
448 1 0.0477807 0.241545 0.5 0.584102 -0.254547
449 1 0.229332 0.156944 0.5 -0.756272 -0.579775
450 1 0.221172 0.392107 0.5 0.180238 -0.907088
451 1 0.259467 0.238919 0.5 0.56492 -0.376085
452 1 0.987913 0.400896 0.5 0.92535 -0.151102
453 1 0.113944 0.0463893 0.5 0.313191 0.720179
454 1 0.191194 0.868629 0.5 -0.145846 -0.738158
455 1 0.065525 0.0329167 0.5 0.14834 -0.557438
456 1 0.969187 0.340243 0.5 0.540421 0.238318
457 1 0.688786 0.30107 0.5 -0.0723977 -0.487095
458 1 0.779269 0.212048 0.5 -0.300074 -0.435931
459 1 0.0215251 0.244396 0.5 -0.261375 0.659313
460 1 0.223405 0.0207251 0.5 -0.650424 -0.448616
461 1 0.185997 0.371755 0.5 0.103181 -0.865401
462 1 0.890061 0.325986 0.5 -0.256298 0.234365
463 1 0.326779 0.202906 0.5 0.225867 -0.852445
464 1 0.947416 0.229694 0.5 -0.181218 -0.49601
465 1 0.181596 0.212346 0.5 -0.32234 -0.76935
466 1 0.293471 0.103943 0.5 0.201922 -0.627968
467 1 0.100215 0.288913 0.5 -0.072811 -0.983577
468 1 0.741307 0.279072 0.5 -0.252412 0.0138998
469 1 0.989266 0.913814 0.5 -0.842138 -0.208858
470 1 0.178566 0.231948 0.5 -0.589792 -0.642898
471 1 0.266344 0.287875 0.5 0.0878817 -0.598633
472 1 0.384035 0.472828 0.5 -0.177221 -0.791195
473 1 0.153533 0.201821 0.5 0.0167357 -0.166953
474 1 0.0774219 0.304093 0.5 0.125222 -0.851982
475 1 0.0622473 0.316656 0.5 0.821534 -0.384207
476 1 0.995795 0.202849 0.5 -0.882268 -0.230512
477 1 0.310302 0.196321 0.5 0.288796 -0.522341
478 1 0.156642 0.39075 0.5 0.12195 0.48672
479 1 0.219603 0.0765546 0.5 -0.597194 -0.169923
480 1 0.140326 0.235851 0.5 -0.545868 -0.267558
481 1 0.968232 0.183988 0.5 -0.0776784 -0.314148
482 1 0.179436 0.417719 0.5 -0.434605 -0.0489396
483 1 0.30239 0.159087 0.5 -0.218235 -0.965892
484 1 0.225128 0.299666 0.5 -0.651581 -0.585368
485 1 0.154303 0.332152 0.5 -0.352488 -0.52572
486 1 0.136877 0.269758 0.5 -0.594569 -0.582556
487 1 0.212951 0.371477 0.5 -0.32696 -0.236511
488 1 0.167163 0.0542441 0.5 0.0274627 0.604332
489 1 0.171464 0.358859 0.5 -0.398739 -0.446938
490 1 0.0975351 0.212902 0.5 -0.740102 -0.568223
491 1 0.0363346 0.187746 0.5 0.633768 0.183608
492 1 0.0758834 0.12639 0.5 -0.555187 -0.470474
493 1 0.0399088 0.0779692 0.5 -0.395721 -0.740359
494 1 0.759022 0.366825 0.5 0.820421 0.442892
495 1 0.930305 0.291498 0.5 0.707217 0.363838
496 1 0.0964997 0.984761 0.5 0.631173 0.274023
497 1 0.350429 0.335038 0.5 0.150233 -0.421018
498 1 0.0362224 0.410613 0.5 0.606143 -0.405997
499 1 0.308449 0.357497 0.5 -0.599029 -0.656512
500 1 0.0613805 0.204515 0.5 -0.615306 0.106597
501 1 0.179421 0.39617 0.5 -0.576075 -0.0727055
502 1 0.899853 0.340577 0.5 -0.37162 -0.021956
503 1 0.11211 0.226199 0.5 -0.591701 -0.698367
504 1 0.0231906 0.336851 0.5 0.837379 0.161675
505 1 0.0572131 0.334915 0.5 -0.114358 0.0385961
506 1 0.272219 0.254156 0.5 -0.486684 -0.851375
507 1 0.158714 0.144913 0.5 -0.106267 -0.836445
508 1 0.994712 0.213272 0.5 -0.209584 0.0796186
509 1 0.227591 0.350329 0.5 -0.0116966 -0.888089
510 1 0.88685 0.156142 0.5 -0.352985 -0.55443
511 1 0.0599911 0.976172 0.5 0.906131 -0.00904026
512 1 0.0866102 0.396764 0.5 -0.82824 0.298936
513 1 0.960594 0.205434 0.5 -0.495779 0.271087
514 1 0.196484 0.311113 0.5 -0.468442 -0.0978565
515 1 0.277479 0.365805 0.5 0.211287 -0.0815948
516 1 0.0894692 0.319068 0.5 0.30328 -0.526213
517 1 0.0608116 0.218585 0.5 -0.599235 -0.239619
518 1 0.107999 0.198178 0.5 -0.745355 -0.64519
519 1 0.0466166 0.0947617 0.5 -0.693081 0.0187901
520 1 0.190445 0.195959 0.5 -0.706477 -0.132624
521 1 0.104849 0.219317 0.5 -0.551886 -0.777977
522 1 0.938521 0.163047 0.5 0.199562 0.474217
523 1 0.997901 0.181398 0.5 -0.561133 -0.322127
524 1 0.224676 0.41134 0.5 0.257408 -0.518923
525 1 0.121227 0.974199 0.5 -0.279073 -0.162107
526 1 0.096027 0.222869 0.5 -0.132472 -0.371552
527 1 0.0104495 0.33571 0.5 0.645232 0.14595
528 1 0.406248 0.422654 0.5 0.282615 0.230503
529 1 0.0396227 0.302159 0.5 0.414956 -0.431862
530 1 0.0841428 0.901488 0.5 0.740845 -0.407103
531 1 0.982047 0.33974 0.5 0.263586 -0.456864
532 1 0.00962987 0.0441964 0.5 0.502439 -0.0953141
533 1 0.967699 0.174344 0.5 0.102927 -0.260695
534 1 0.19291 0.163649 0.5 -0.358278 -0.0751361
535 1 0.0440073 0.21586 0.5 -0.487285 -0.621097
536 1 0.971789 0.296362 0.5 0.110951 0.837337
537 1 0.165213 0.0261877 0.5 0.107855 0.357166
538 1 0.105905 0.26724 0.5 0.295131 -0.705433
539 1 0.366122 0.415311 0.5 0.386451 0.422568
540 1 0.0234654 0.411283 0.5 0.75563 -0.38479
541 1 0.877778 0.232373 0.5 0.353779 0.356291
542 1 0.120845 0.244676 0.5 -0.640145 -0.575134
543 1 0.249427 0.126544 0.5 -0.739922 0.213222
544 1 0.238833 0.0564444 0.5 -0.291253 -0.849803
545 1 0.0569599 0.122211 0.5 -0.974419 0.0307665
546 1 0.496589 0.364574 0.5 0.433426 0.699309
547 1 0.787426 0.361709 0.5 0.716108 0.450384
548 1 0.323087 0.400624 0.5 -0.0949924 -0.372142
549 1 0.139183 0.151841 0.5 -0.724677 -0.161376
550 1 0.0360688 0.157262 0.5 0.0907991 0.566105
551 1 0.204733 0.306026 0.5 -0.16256 -0.422413
552 1 0.136521 0.258908 0.5 -0.561885 -0.554766
553 1 0.0209861 0.15318 0.5 -0.801242 -0.0398541
554 1 0.176538 0.451325 0.5 0.157121 -0.0572163
555 1 0.0253943 0.992357 0.5 0.968157 -0.187582
556 1 0.924756 0.141339 0.5 -0.406873 -0.15097
557 1 0.259141 0.327911 0.5 -0.48398 -0.800764
558 1 0.41379 0.464696 0.5 -0.714926 -0.308488
559 1 0.196271 0.266226 0.5 -0.385847 0.564933
560 1 0.0923959 0.137271 0.5 -0.716734 -0.516881
561 1 0.195276 0.381291 0.5 -0.11214 -0.163019
562 1 0.405288 0.369128 0.5 -0.385403 -0.0131379
563 1 0.314256 0.287741 0.5 -0.259502 0.00465778
564 1 0.245061 0.292924 0.5 -0.0283632 -0.785001
565 1 0.131463 0.300853 0.5 -0.711769 -0.0811454
566 1 0.957007 0.221821 0.5 0.0496066 0.771591
567 1 0.924202 0.330357 0.5 0.605208 0.519419
568 1 0.0727813 0.356276 0.5 0.67105 0.364602
569 1 0.0524204 0.0608848 0.5 0.292366 0.281166
570 1 0.122002 0.142001 0.5 -0.897903 0.104289
571 1 0.942179 0.274366 0.5 0.518455 0.796629
572 1 0.110512 0.28595 0.5 -0.227116 -0.698072
573 1 0.0527837 0.179981 0.5 -0.108196 -0.19059
574 1 0.122548 0.280811 0.5 -0.092506 -0.510357
575 1 0.962475 0.409019 0.5 0.888617 -0.226108
576 1 0.158392 0.371112 0.5 -0.346195 -0.552831
577 1 0.988387 0.347457 0.5 0.292833 -0.111012
578 1 0.106617 0.208182 0.5 -0.533327 -0.733186
579 1 0.186452 0.0615487 0.5 -0.952142 -0.0469279
580 1 0.986393 0.186615 0.5 -0.63554 -0.465558
581 1 0.26887 0.406014 0.5 0.577342 -0.241795
582 1 0.112609 0.146739 0.5 -0.845731 -0.0309855
583 1 0.932389 0.212873 0.5 0.143449 -0.461171
584 1 0.164793 0.162141 0.5 -0.686552 -0.560082
585 1 0.239814 0.239315 0.5 0.468227 0.236565
586 1 0.229692 0.338009 0.5 -0.411867 -0.698555
587 1 0.871518 0.187255 0.5 0.430896 0.773933
588 1 0.173687 0.197796 0.5 -0.838475 0.321558
589 1 0.257951 0.407916 0.5 0.569094 -0.704772
590 1 0.260919 0.30708 0.5 -0.485499 -0.756781
591 1 0.056801 0.164875 0.5 -0.35814 0.522067
592 1 0.99774 0.293973 0.5 -0.74191 0.588587
593 1 0.135294 0.953885 0.5 0.403014 -0.606965
594 1 0.1195 0.254105 0.5 -0.297918 -0.882382
595 1 0.225699 0.217815 0.5 -0.566115 0.436578
596 1 0.0128885 0.0916371 0.5 -0.548674 0.128453
597 1 0.351996 0.188842 0.5 0.358897 -0.87074
598 1 0.0162426 0.959619 0.5 -0.201508 -0.0322049
599 1 0.0967446 0.0053631 0.5 0.77236 0.423416
600 1 0.375559 0.244642 0.5 -0.328805 -0.851483
601 1 0.102695 0.0408581 0.5 0.136235 0.305173
602 1 0.126 0.409312 0.5 0.265345 0.152045
603 1 0.138916 0.0993671 0.5 -0.760948 0.170776
604 1 0.952672 0.210569 0.5 -0.284293 0.48976
605 1 0.129256 0.157983 0.5 -0.87956 -0.221188
606 1 0.105639 0.987003 0.5 0.284312 0.490166
607 1 0.195776 0.39857 0.5 -0.328933 -0.230589
608 1 0.878253 0.180331 0.5 -0.168262 0.513883
609 1 0.179771 0.315441 0.5 0.0886547 -0.174802
610 1 0.988963 0.164027 0.5 -0.657089 0.318859
611 1 0.0811548 0.23497 0.5 -0.0923992 -0.3128
612 1 0.173253 0.133127 0.5 0.285814 -0.245321
613 1 0.908653 0.140403 0.5 -0.434127 0.024615
614 1 0.125667 0.997456 0.5 -0.110069 0.429717
615 1 0.978715 0.276009 0.5 -0.690725 0.646674
616 1 0.173061 0.20756 0.5 -0.128799 0.0266408
617 1 0.98494 0.0565903 0.5 0.20171 0.108227
618 1 0.344235 0.3681 0.5 -0.0758134 -0.0800038
619 1 0.120905 0.222679 0.5 -0.498767 -0.714412
620 1 0.993451 0.408887 0.5 0.82235 -0.353751
621 1 0.136092 0.410694 0.5 0.499745 0.465074
622 1 0.178725 0.407794 0.5 -0.520142 -0.0940238
623 1 0.292878 0.34413 0.5 -0.112259 -0.923144
624 1 0.163371 0.290406 0.5 -0.587643 -0.450152
625 1 0.00550297 0.198005 0.5 -0.855144 0.0319217
626 1 0.196982 0.407969 0.5 -0.856129 -0.120897
627 1 0.186953 0.402284 0.5 -0.768861 -0.157267
628 1 0.110181 0.0942815 0.5 -0.784684 0.452821