# LAMMPS data file written by Ovito 3.7.11
9945 atoms
1 atom types
-58.36 58.36 xlo xhi
-58.36 58.36 ylo yhi
-0.5 0.5 zlo zhi

Atoms  # atomic

1 1 -39.177068 52.5117444 0.0
2 1 25.77901264 38.69419736 0.0
3 1 -29.32625016 52.07451128 0.0
4 1 57.18264536 51.62338848 0.0
5 1 -50.982805776 -51.562308904 0.0
6 1 -38.28275936 35.9252488 0.0
7 1 52.8940024 -31.41215328 0.0
8 1 -39.54928808 47.30171376 0.0
9 1 -42.01476464 26.16232112 0.0
10 1 31.08918904 34.48574104 0.0
11 1 28.75677328 33.11953344 0.0
12 1 -30.23538224 -52.329392744 0.0
13 1 -50.211321592 50.16999104 0.0
14 1 -38.27167096 -31.96762376 0.0
15 1 41.72786688 -42.74718264 0.0
16 1 -34.4679996 -58.0997412456 0.0
17 1 -28.99429848 -54.310154488 0.0
18 1 -29.04880672 2.3116396 0.0
19 1 -29.72076376 -53.35726408 0.0
20 1 -20.3407944 14.69189656 0.0
21 1 -48.180370248 24.8835368 0.0
22 1 -50.3372508 25.53681864 0.0
23 1 -47.001673328 25.12829864 0.0
24 1 -47.577044568 -54.373696856 0.0
25 1 -44.44674256 35.78016584 0.0
26 1 -50.134578192 52.5140788 0.0
27 1 -53.787155512 31.59820496 0.0
28 1 -33.18104488 -29.18980448 0.0
29 1 -34.04010408 -44.7866312 0.0
30 1 -42.02048392 20.88459288 0.0
31 1 -42.73924568 25.23299648 0.0
32 1 -30.06800576 -55.64094924 0.0
33 1 -50.905221992 53.36508432 0.0
34 1 45.87352784 50.93100544 0.0
35 1 -40.9372056 -49.872798576 0.0
36 1 45.2441736 -22.18952248 0.0
37 1 -43.338136 30.60538464 0.0
38 1 -30.11831208 -48.13147624 0.0
39 1 51.4390876 -28.55356376 0.0
40 1 58.2211032 35.2593612 0.0
41 1 41.85999392 41.07983744 0.0
42 1 -9.68355808 57.76145984 0.0
43 1 -12.80033224 -48.08198696 0.0
44 1 47.18009152 27.20323008 0.0
45 1 -30.3798816 52.80681256 0.0
46 1 18.50852384 10.05157624 0.0
47 1 -41.65806832 33.7052344 0.0
48 1 30.15192744 46.51630488 0.0
49 1 24.74802488 30.11597768 0.0
50 1 -46.27119288 47.56561768 0.0
51 1 -53.344494912 34.75151248 0.0
52 1 -13.28553728 -53.68758168 0.0
53 1 27.61816968 16.95147904 0.0
54 1 39.43945456 33.58524624 0.0
55 1 -52.999715704 47.11005952 0.0
56 1 -19.0352812 42.34333144 0.0
57 1 40.12681864 37.0475116 0.0
58 1 45.10982888 42.72372192 0.0
59 1 -48.929712648 23.95514592 0.0
60 1 -56.640679384 56.68880304 0.0
61 1 -38.23852248 50.2864776 0.0
62 1 -28.7125364 41.82637856 0.0
63 1 -49.009339032 50.56053616 0.0
64 1 -55.637074136 26.41852152 0.0
65 1 55.56852448 40.1394244 0.0
66 1 -17.108234 -43.5243044 0.0
67 1 37.3498164 29.54976896 0.0
68 1 -40.22509688 36.84885416 0.0
69 1 48.24574512 8.84177344 0.0
70 1 39.51602288 28.36692848 0.0
71 1 -41.01342376 39.32390176 0.0
72 1 51.48811 -50.570469032 0.0
73 1 -51.44848356 49.9275636 0.0
74 1 -35.67593488 -28.58974696 0.0
75 1 -16.72375832 42.28613864 0.0
76 1 50.02292384 42.49588448 0.0
77 1 -52.298123456 49.21136968 0.0
78 1 -48.456272984 58.23487616 0.0
79 1 -54.303197976 47.6054192 0.0
80 1 -10.2059968 -39.90516736 0.0
81 1 -27.24034704 57.16432032 0.0
82 1 -14.60680768 -56.585634232 0.0
83 1 -18.95322704 54.62110824 0.0
84 1 49.2990264 -36.87896792 0.0
85 1 40.11502992 21.53822488 0.0
86 1 -42.2917412 28.29222768 0.0
87 1 -50.049255872 51.33614056 0.0
88 1 -52.452123824 32.20818368 0.0
89 1 54.78089792 -54.595056336 0.0
90 1 -22.31429616 43.31175728 0.0
91 1 45.28280792 -12.3262156 0.0
92 1 18.61380528 -37.07120576 0.0
93 1 -42.22859568 55.59035112 0.0
94 1 -48.849806136 54.1394048 0.0
95 1 -42.22999632 45.8324424 0.0
96 1 -57.039628344 45.43932944 0.0
97 1 29.19610736 -52.19070604 0.0
98 1 44.7130976 37.67499832 0.0
99 1 0.09617728 -48.93316756 0.0
100 1 -43.51461664 -25.10378744 0.0
101 1 -52.909421112 35.88859872 0.0
102 1 35.39662392 24.2795108 0.0
103 1 -43.94694752 53.54144824 0.0
104 1 -33.24722512 57.97447384 0.0
105 1 -25.55841184 46.72313272 0.0
106 1 53.2021432 -56.578432608 0.0
107 1 44.1248288 41.97402936 0.0
108 1 -48.152730952 40.69629552 0.0
109 1 49.23237928 31.56879152 0.0
110 1 49.20028128 -51.117780784 0.0
111 1 42.47639224 45.36941416 0.0
112 1 47.28875784 46.52295792 0.0
113 1 -34.64237928 -37.65247136 0.0
114 1 -49.586951296 -48.344186768 0.0
115 1 -43.2336716 33.53225536 0.0
116 1 -35.48544784 48.83891616 0.0
117 1 -40.28660832 57.82997448 0.0
118 1 51.22000416 51.37150672 0.0
119 1 51.46511616 35.91509416 0.0
120 1 -48.840270112 46.29033496 0.0
121 1 -54.369541624 48.72499744 0.0
122 1 -22.04000416 50.32196048 0.0
123 1 -48.222774624 29.17217976 0.0
124 1 17.53216104 36.10196288 0.0
125 1 53.60704488 35.39160496 0.0
126 1 -38.71053816 30.59452968 0.0
127 1 40.76189216 12.81387176 0.0
128 1 -22.982168 19.73081568 0.0
129 1 -2.16597304 52.69055944 0.0
130 1 -6.07049048 -41.74280704 0.0
131 1 -41.22888888 -54.216871864 0.0
132 1 -43.83139472 21.14254408 0.0
133 1 -50.621335608 38.2719044 0.0
134 1 -43.45637336 22.646598 0.0
135 1 -41.12652544 45.45123488 0.0
136 1 -43.08065168 -55.232219144 0.0
137 1 -56.173682664 48.8712476 0.0
138 1 -48.642721512 30.26152752 0.0
139 1 43.07971792 39.33078824 0.0
140 1 -25.22762736 20.16583112 0.0
141 1 -45.79287432 49.78119672 0.0
142 1 48.32219672 20.42273184 0.0
143 1 -26.07921648 -56.752053608 0.0
144 1 -36.92390512 35.8925672 0.0
145 1 53.39636528 26.17551048 0.0
146 1 -54.565736272 37.7052288 0.0
147 1 -25.59692944 -45.44516544 0.0
148 1 -48.140475352 48.8636608 0.0
149 1 51.91892352 41.90983336 0.0
150 1 -19.22985344 -56.316909776 0.0
151 1 -32.7598024 56.6809828 0.0
152 1 -33.93295512 -48.031120384 0.0
153 1 -52.023434608 42.35722112 0.0
154 1 19.75929536 24.00766992 0.0
155 1 -44.88794416 57.37184848 0.0
156 1 54.06738856 -58.175973412 0.0
157 1 -52.510670576 54.74938352 0.0
158 1 -41.54683416 -48.479465248 0.0
159 1 27.23287696 30.63456464 0.0
160 1 34.65673584 38.53674208 0.0
161 1 -38.61996344 53.58113304 0.0
162 1 22.80685456 16.20493792 0.0
163 1 55.44585176 -56.768837944 0.0
164 1 -45.02368952 53.04130304 0.0
165 1 43.02054088 27.39861936 0.0
166 1 -53.30071324 53.79589784 0.0
167 1 -17.35894856 56.42408208 0.0
168 1 50.53427416 44.960544 0.0
169 1 -46.870748504 33.40106208 0.0
170 1 -23.21420736 42.62626072 0.0
171 1 -48.700241128 37.03035376 0.0
172 1 -46.81860968 -55.575445976 0.0
173 1 -42.47312408 -54.195745544 0.0
174 1 -37.01984896 50.07311344 0.0
175 1 -49.56678208 55.13887816 0.0
176 1 -55.982460288 31.19645472 0.0
177 1 -34.71229456 46.4236292 0.0
178 1 -53.08880808 20.07478952 0.0
179 1 -27.5330808 21.40948272 0.0
180 1 -35.48182952 -56.08320132 0.0
181 1 48.15330288 24.93384312 0.0
182 1 -54.81877356 52.03891168 0.0
183 1 -51.849370072 20.525212 0.0
184 1 -46.24609808 24.22208456 0.0
185 1 -36.279494 41.54660072 0.0
186 1 -38.33108144 -41.9485844 0.0
187 1 53.01702528 43.81738832 0.0
188 1 -35.54275736 38.76411264 0.0
189 1 -43.37186808 37.96399704 0.0
190 1 -35.92338128 32.93091392 0.0
191 1 49.60448264 45.56562048 0.0
192 1 -37.54030344 57.6701848 0.0
193 1 56.51220568 50.60594024 0.0
194 1 38.3285136 28.9308028 0.0
195 1 -39.5283952 41.01996008 0.0
196 1 -39.3503972 -53.162154928 0.0
197 1 -47.879232648 -56.389859776 0.0
198 1 -57.070057248 51.98743816 0.0
199 1 -43.67639056 40.74893624 0.0
200 1 -49.246315648 57.38025232 0.0
201 1 -56.241310232 33.67418688 0.0
202 1 -39.51812384 50.40751624 0.0
203 1 -32.09648264 55.76683176 0.0
204 1 27.33955904 35.24430432 0.0
205 1 -55.151040384 -54.015203048 0.0
206 1 -24.27390824 29.43433288 0.0
207 1 45.792174 -40.33656448 0.0
208 1 -32.5106052 -38.60350592 0.0
209 1 -33.7881056 44.17816984 0.0
210 1 -21.03072632 54.39665568 0.0
211 1 -32.89543104 45.18604704 0.0
212 1 -52.659056712 -49.203339344 0.0
213 1 42.9984808 42.07277448 0.0
214 1 -39.34152648 31.7466728 0.0
215 1 55.10257824 -51.3594262 0.0
216 1 -10.92627592 -47.245933272 0.0
217 1 -40.4370604 22.05587808 0.0
218 1 -53.86913964 -30.94982536 0.0
219 1 -32.2806668 -41.80198408 0.0
220 1 23.15246248 23.17148784 0.0
221 1 -57.9176031872 50.5841136 0.0
222 1 -25.6153712 -46.55680672 0.0
223 1 -34.59312344 -47.083435688 0.0
224 1 -48.74478148 -53.929285456 0.0
225 1 40.92273232 40.3681956 0.0
226 1 -26.7889908 -52.961361512 0.0
227 1 23.58455992 4.90784256 0.0
228 1 24.79798104 27.78262816 0.0
229 1 -31.18921808 -38.92588656 0.0
230 1 57.02950872 48.51886992 0.0
231 1 -55.876303448 29.91988808 0.0
232 1 -57.7004164472 40.84254568 0.0
233 1 -43.97157544 43.15885408 0.0
234 1 -25.5301656 -48.880200024 0.0
235 1 22.41455864 28.0991728 0.0
236 1 -37.85976608 -56.603445704 0.0
237 1 -21.15118136 22.576566 0.0
238 1 -16.49638776 -53.843881432 0.0
239 1 -43.469446 18.4861136 0.0
240 1 55.47608224 -49.014428024 0.0
241 1 -44.77927784 -52.28921772 0.0
242 1 -40.79060528 37.872722 0.0
243 1 -48.08677248 52.4376272 0.0
244 1 -36.66081824 38.98109512 0.0
245 1 -45.0982736 34.76808672 0.0
246 1 30.59429624 -43.60869296 0.0
247 1 -45.18803128 50.86412488 0.0
248 1 -26.26421768 49.06628672 0.0
249 1 56.87847304 56.95212336 0.0
250 1 -33.98174408 56.2934724 0.0
251 1 -54.792021336 25.21630552 0.0
252 1 -24.13454456 49.71910168 0.0
253 1 42.59241192 43.31023992 0.0
254 1 44.01487856 -57.7321852968 0.0
255 1 19.95958688 18.29866128 0.0
256 1 -44.91654056 37.7565856 0.0
257 1 -51.240185048 26.4003132 0.0
258 1 -27.52409336 -22.78619512 0.0
259 1 -39.9001484 -57.666058748 0.0
260 1 -48.856027312 41.56200776 0.0
261 1 -45.8587044 -37.98022112 0.0
262 1 -45.03022584 42.53778696 0.0
263 1 27.75344816 41.39218016 0.0
264 1 55.67940848 31.48440296 0.0
265 1 29.86841456 16.34628584 0.0
266 1 55.28174344 50.2199472 0.0
267 1 -31.22715208 -57.7867052088 0.0
268 1 -13.32977416 -58.0436059288 0.0
269 1 -57.8083976208 38.60945864 0.0
270 1 52.65017432 36.09694392 0.0
271 1 -30.56499952 56.48617712 0.0
272 1 -36.94631536 -37.62761 0.0
273 1 -55.102776664 42.23151368 0.0
274 1 30.8006572 40.5275184 0.0
275 1 55.16198872 33.57439128 0.0
276 1 -47.686329504 36.58810168 0.0
277 1 52.12341696 -56.9444782 0.0
278 1 -39.56959736 -50.730562184 0.0
279 1 -55.97622744 52.05583608 0.0
280 1 -40.46530664 29.47320064 0.0
281 1 52.49201872 31.25248032 0.0
282 1 -44.16591424 -53.194416336 0.0
283 1 -39.71398 53.96455824 0.0
284 1 52.08373216 43.24405968 0.0
285 1 28.28849264 14.5275548 0.0
286 1 -52.121327672 -42.6448192 0.0
287 1 39.3848296 27.23801264 0.0
288 1 -29.87763544 54.22262616 0.0
289 1 -42.13802096 37.87050432 0.0
290 1 57.60132 40.3985428 0.0
291 1 -42.72675664 41.3416404 0.0
292 1 -42.58365792 43.6235164 0.0
293 1 54.68063544 30.93920384 0.0
294 1 51.2103164 48.42992928 0.0
295 1 -11.58539376 -55.308915856 0.0
296 1 -56.64520812 44.17630232 0.0
297 1 11.56310024 34.61063144 0.0
298 1 -44.64434952 40.14771152 0.0
299 1 42.11992936 -55.0851286 0.0
300 1 57.16665472 46.0384532 0.0
301 1 -42.88456208 -51.024054624 0.0
302 1 58.21304952 20.45529672 0.0
303 1 -39.42229672 -28.66082944 0.0
304 1 -52.116308712 44.86880208 0.0
305 1 -33.60508864 -30.53581952 0.0
306 1 -41.53667952 53.21521584 0.0
307 1 -28.07617896 -57.4361623672 0.0
308 1 -44.4930804 -44.21318584 0.0
309 1 -12.51810328 -52.701367712 0.0
310 1 -17.8476552 46.6815804 0.0
311 1 46.67959616 36.2812448 0.0
312 1 -54.967463168 38.77823576 0.0
313 1 32.3145156 45.63950424 0.0
314 1 -43.89617432 36.85363968 0.0
315 1 53.87701824 -30.75887144 0.0
316 1 -45.88064776 -9.63827072 0.0
317 1 -43.87049592 -35.22819696 0.0
318 1 55.36951688 -17.74949368 0.0
319 1 -50.024056024 -29.09514456 0.0
320 1 -32.79061648 -33.95699944 0.0
321 1 -39.0264992 -48.541128424 0.0
322 1 -17.9620408 -42.73971256 0.0
323 1 -41.41447368 -35.40164288 0.0
324 1 -50.0375722 -56.957597528 0.0
325 1 -30.03123896 -12.67427464 0.0
326 1 -38.447568 -53.83085548 0.0
327 1 -36.80158256 42.585292 0.0
328 1 0.80501784 -43.7414036 0.0
329 1 -50.410539288 -35.29169264 0.0
330 1 -28.8397612 -28.89485304 0.0
331 1 -45.7209748 -30.5053556 0.0
332 1 16.4014944 -49.517736336 0.0
333 1 -44.07650672 -37.19773024 0.0
334 1 -40.76726128 -31.39954752 0.0
335 1 -55.873525512 -10.18860552 0.0
336 1 -44.13054808 -31.93155728 0.0
337 1 56.17021608 -10.03336792 0.0
338 1 -52.878980536 -45.64428976 0.0
339 1 -2.46769424 -44.16498048 0.0
340 1 -16.74220008 53.90293008 0.0
341 1 31.37118456 -21.66288184 0.0
342 1 57.34873792 -21.24327344 0.0
343 1 55.16607392 -32.4750056 0.0
344 1 39.9234924 -35.37934936 0.0
345 1 -28.24028728 -35.44564632 0.0
346 1 -54.367218896 -29.85534192 0.0
347 1 -36.63513984 -22.24204648 0.0
348 1 -51.1455368 -28.91644624 0.0
349 1 -34.64459696 -30.9500588 0.0
350 1 -40.99883376 -8.03126976 0.0
351 1 -25.50728848 -21.01636976 0.0
352 1 17.70257224 -34.8047368 0.0
353 1 -51.642145384 -27.95023808 0.0
354 1 0.89209096 -47.972305176 0.0
355 1 -36.27342456 -53.729332424 0.0
356 1 -11.81895048 49.31863536 0.0
357 1 -46.960494512 -2.25923232 0.0
358 1 -17.9795488 50.84101432 0.0
359 1 -23.4525496 -45.46314032 0.0
360 1 -33.23228496 -37.6637932 0.0
361 1 48.82642712 -24.76693352 0.0
362 1 30.37626328 -21.01216784 0.0
363 1 10.9845192 -41.08228856 0.0
364 1 -17.93029296 42.36772592 0.0
365 1 -50.974273544 -48.245231552 0.0
366 1 -42.0635536 -16.67893784 0.0
367 1 -55.921975984 -24.20049136 0.0
368 1 -30.55181016 -6.17121984 0.0
369 1 -51.114045744 48.83167952 0.0
370 1 -47.85076464 -33.61034104 0.0
371 1 -41.11940552 -38.56685584 0.0
372 1 -48.936634144 -19.69556624 0.0
373 1 -13.41673056 -12.68139456 0.0
374 1 57.98696288 45.28724328 0.0
375 1 51.35143088 -36.38057352 0.0
376 1 -43.06921312 -46.13369672 0.0
377 1 -50.002369448 -13.81357856 0.0
378 1 -30.34976784 -33.65224352 0.0
379 1 -39.4968808 44.05374632 0.0
380 1 -44.78359648 -22.03801992 0.0
381 1 -39.83221736 -49.362090216 0.0
382 1 -28.470926 -26.51808368 0.0
383 1 57.01912064 12.10771576 0.0
384 1 -51.592644432 -35.19493176 0.0
385 1 47.42543696 -22.86229656 0.0
386 1 -46.63034032 -23.65750992 0.0
387 1 -33.56155208 -24.82319256 0.0
388 1 -49.082242344 -44.36328776 0.0
389 1 -54.095121232 -5.31589568 0.0
390 1 -43.98546512 -7.95925352 0.0
391 1 52.12866936 -13.17313592 0.0
392 1 -26.9926672 -9.66009736 0.0
393 1 36.43694928 -21.60767328 0.0
394 1 -48.889129104 -13.27199776 0.0
395 1 -28.0921696 -42.96790016 0.0
396 1 57.32305952 -41.25958624 0.0
397 1 49.92149416 -13.60756776 0.0
398 1 -25.02920336 35.28305536 0.0
399 1 -39.94345152 -56.479559096 0.0
400 1 -48.18709332 10.93701416 0.0
401 1 -45.12383528 -51.2310342 0.0
402 1 -41.8744672 -17.87928632 0.0
403 1 -5.90965032 -54.27585048 0.0
404 1 56.05559704 -11.208038 0.0
405 1 -45.34466952 -33.84553184 0.0
406 1 56.24631752 -2.41365288 0.0
407 1 -45.93550616 -21.42535664 0.0
408 1 -20.20026352 -45.44446512 0.0
409 1 -0.08555576 -44.59322616 0.0
410 1 34.68474864 -35.78261696 0.0
411 1 -32.0857444 58.08594144 0.0
412 1 55.80114744 -21.06644264 0.0
413 1 -32.83963888 -44.54455392 0.0
414 1 -30.393888 -54.342054064 0.0
415 1 -29.34609256 -45.24370672 0.0
416 1 -34.30389128 55.19642112 0.0
417 1 -16.29259464 -31.75962872 0.0
418 1 -34.36960464 -42.69022328 0.0
419 1 57.63423504 -39.09408008 0.0
420 1 55.8645264 -24.28021112 0.0
421 1 -25.06772096 -55.972235616 0.0
422 1 -28.46649064 -50.11980144 0.0
423 1 -13.48863008 45.27277 0.0
424 1 -49.083864752 -31.22586816 0.0
425 1 -38.9984864 -46.63442552 0.0
426 1 -46.64913224 -47.928044952 0.0
427 1 -45.8190196 -16.25361016 0.0
428 1 -23.57265448 -46.53813152 0.0
429 1 -53.499452384 -22.34511024 0.0
430 1 -54.284709528 -27.47553784 0.0
431 1 -54.180046704 -56.1110974 0.0
432 1 37.95979512 11.0265384 0.0
433 1 -25.660892 -35.15676432 0.0
434 1 -57.39685574 -22.06311472 0.0
435 1 -14.87934888 47.53912224 0.0
436 1 -30.674016 -44.87312072 0.0
437 1 -11.27328448 45.01155064 0.0
438 1 -37.61523768 -38.76376248 0.0
439 1 -34.11818976 48.71601 0.0
440 1 -48.02841248 -31.4782168 0.0
441 1 -31.90903032 -5.91688696 0.0
442 1 45.90457536 -35.48883272 0.0
443 1 -43.22631824 -36.2946676 0.0
444 1 -23.53495392 51.74699496 0.0
445 1 52.86260472 -25.80959328 0.0
446 1 -18.73916256 -15.81019088 0.0
447 1 -54.223186416 -51.943889928 0.0
448 1 -54.249390056 -38.4744136 0.0
449 1 -26.16232112 -41.40630328 0.0
450 1 -55.32533836 -19.09329104 0.0
451 1 -34.40637144 -28.3151048 0.0
452 1 48.943614 -1.3125164 0.0
453 1 -28.14095856 -47.8190168 0.0
454 1 -33.49373776 46.42432952 0.0
455 1 47.82812096 -49.229274528 0.0
456 1 57.77161448 -32.76610528 0.0
457 1 9.88548368 -34.11445472 0.0
458 1 21.14604568 -28.78303528 0.0
459 1 -57.312216232 -30.72548952 0.0
460 1 -11.72767544 48.19450504 0.0
461 1 -50.7924588 4.28922656 0.0
462 1 53.58977032 0.98359944 0.0
463 1 -16.14494384 -36.00730296 0.0
464 1 -45.424506 -41.50107992 0.0
465 1 -20.7720748 -38.22136464 0.0
466 1 -27.63567768 -33.18221208 0.0
467 1 55.72341192 -39.61756928 0.0
468 1 19.58526584 -38.27867416 0.0
469 1 -46.54373408 48.8835032 0.0
470 1 -43.02275856 -27.747262 0.0
471 1 -49.969897944 -38.87733104 0.0
472 1 2.89512288 -25.59132688 0.0
473 1 -40.33924904 -29.3825092 0.0
474 1 47.24113608 -15.12877952 0.0
475 1 -57.8879831528 -29.74574184 0.0
476 1 -41.87084888 -41.85509168 0.0
477 1 -16.536306 -58.1783229856 0.0
478 1 -57.3590816464 -0.92185456 0.0
479 1 -20.05401336 -43.13866152 0.0
480 1 -51.842483592 -37.3293904 0.0
481 1 -49.912985272 -50.522333704 0.0
482 1 -46.48945928 0.22503616 0.0
483 1 -16.73041136 -55.85962416 0.0
484 1 -46.61703424 -33.5622524 0.0
485 1 56.854312 -6.39298784 0.0
486 1 -54.22145896 -18.87292368 0.0
487 1 -37.7040616 -8.51682496 0.0
488 1 -40.31637192 49.58802512 0.0
489 1 -52.774469448 7.76152984 0.0
490 1 -50.261091 -40.93860624 0.0
491 1 -37.6678784 -50.373830848 0.0
492 1 -43.60332384 -49.61953952 0.0
493 1 -35.84751328 -48.924086744 0.0
494 1 35.93201856 -35.66601368 0.0
495 1 -51.667485296 -23.55047768 0.0
496 1 -50.629307584 35.87949456 0.0
497 1 -23.1298188 -18.1172784 0.0
498 1 56.92224304 -7.70807208 0.0
499 1 -29.44752224 -17.02162776 0.0
500 1 -44.64003088 -36.12157184 0.0
501 1 -44.96661344 -6.33346064 0.0
502 1 51.40418832 -20.94983936 0.0
503 1 -46.4819892 -29.44238656 0.0
504 1 50.72627856 -12.39718136 0.0
505 1 55.15510224 -8.80512336 0.0
506 1 -35.97217024 -31.0043336 0.0
507 1 -27.11615696 -42.01756592 0.0
508 1 53.5698112 -16.21987808 0.0
509 1 -55.276000816 -21.30700256 0.0
510 1 40.8134824 -34.39878464 0.0
511 1 -47.481532592 54.44836264 0.0
512 1 -52.459407152 -4.09372056 0.0
513 1 -44.17175024 -41.58873664 0.0
514 1 -41.25386696 -10.17354864 0.0
515 1 -42.16416624 -10.80161896 0.0
516 1 -56.629555968 -7.44253408 0.0
517 1 -37.96831568 -33.05895576 0.0
518 1 -44.00273968 -43.15266792 0.0
519 1 -37.37561152 45.20297144 0.0
520 1 -19.81018528 -49.307453584 0.0
521 1 -37.50026848 -53.227273016 0.0
522 1 -50.239871304 -45.15103104 0.0
523 1 56.43271936 -29.31002608 0.0
524 1 -52.68641588 -9.27970688 0.0
525 1 -48.040271232 49.9643304 0.0
526 1 -38.24844368 -44.12844712 0.0
527 1 56.0553636 -18.72492272 0.0
528 1 -16.43849464 -17.84578768 0.0
529 1 -53.984564048 -43.12815672 0.0
530 1 -55.669802424 37.92197784 0.0
531 1 53.21883416 -35.50774136 0.0
532 1 -38.26886968 -52.431347664 0.0
533 1 -54.054455984 -48.625692064 0.0
534 1 -49.144594168 -33.40362992 0.0
535 1 -42.63174656 -35.37292976 0.0
536 1 -57.5443793152 -14.8368628 0.0
537 1 -37.4391072 47.98312512 0.0
538 1 -42.64435232 -37.25025424 0.0
539 1 -8.85718048 -13.7682912 0.0
540 1 51.70310824 -25.56774944 0.0
541 1 57.01993768 -33.69519648 0.0
542 1 55.13607688 -34.64821528 0.0
543 1 -8.11997696 55.7478064 0.0
544 1 -30.17422096 51.14717088 0.0
545 1 -32.06601872 -53.177538624 0.0
546 1 -3.13988472 -27.350414 0.0
547 1 -56.722114928 -29.48977488 0.0
548 1 -37.3754948 -25.82056496 0.0
549 1 -25.70687968 51.05764664 0.0
550 1 -41.50143008 56.46143248 0.0
551 1 -55.387281664 -25.34294672 0.0
552 1 56.64141472 -25.17557024 0.0
553 1 -42.20968704 -49.85449688 0.0
554 1 -53.939101608 2.68432656 0.0
555 1 -38.46169112 -51.206196184 0.0
556 1 53.52265632 -46.53124504 0.0
557 1 -47.668366296 -28.99278112 0.0
558 1 -12.990936 3.48187432 0.0
559 1 -26.36716472 -27.20299664 0.0
560 1 -40.3932904 -39.96994696 0.0
561 1 -36.93697776 -11.604886 0.0
562 1 -23.379016 -22.64939928 0.0
563 1 -36.75781256 -17.84987288 0.0
564 1 -39.42591504 -31.60964352 0.0
565 1 -48.110198184 -30.38933592 0.0
566 1 -55.265916208 -23.22891408 0.0
567 1 49.54402168 -41.21523264 0.0
568 1 -54.64847908 -17.82045944 0.0
569 1 -55.637879504 -56.073186744 0.0
570 1 -32.4913464 -51.547357072 0.0
571 1 32.24891896 -38.64552512 0.0
572 1 -51.079134792 -26.82330648 0.0
573 1 -37.83408768 -46.41674272 0.0
574 1 -47.914015208 -22.7061252 0.0
575 1 -48.97168516 3.6247396 0.0
576 1 -45.34653704 -12.1429652 0.0
577 1 52.2362852 -20.12789712 0.0
578 1 -51.844607896 -29.80923752 0.0
579 1 -12.42811216 -56.158345656 0.0
580 1 -40.09833896 -41.13364536 0.0
581 1 -41.85217368 -14.97552616 0.0
582 1 -31.5861828 -54.239235416 0.0
583 1 -54.503816312 -31.95513472 0.0
584 1 -33.76371112 -36.59335408 0.0
585 1 -33.18022784 -52.467379128 0.0
586 1 -37.51100672 -4.72786032 0.0
587 1 54.37272808 -42.33796232 0.0
588 1 -31.48732096 -40.97432256 0.0
589 1 -47.8467378 -10.5614092 0.0
590 1 -46.944830688 -30.53266808 0.0
591 1 -39.75576576 -33.78670496 0.0
592 1 48.62695264 -31.83152824 0.0
593 1 -46.793666616 -53.291702456 0.0
594 1 53.2249036 -23.74820136 0.0
595 1 -36.51783624 -26.7224604 0.0
596 1 -40.62684712 -55.112826256 0.0
597 1 -14.92510312 -36.39726448 0.0
598 1 -51.614891264 -55.512183736 0.0
599 1 -52.00062752 53.562808 0.0
600 1 -31.59108504 -33.61104136 0.0
601 1 -48.515415008 -57.3372981928 0.0
602 1 51.14331912 -11.05957016 0.0
603 1 -23.08161344 -55.325606816 0.0
604 1 -47.348821952 -42.27201552 0.0
605 1 -41.61558224 -42.92564752 0.0
606 1 -54.052541776 52.95317944 0.0
607 1 -55.521462976 0.9763628 0.0
608 1 42.1405888 -38.05165376 0.0
609 1 57.83312592 -2.58523128 0.0
610 1 34.15390608 -30.9681504 0.0
611 1 54.61258768 -40.28602472 0.0
612 1 -33.86724176 -54.51197504 0.0
613 1 -55.791156208 -44.05923216 0.0
614 1 -52.809578824 52.63395024 0.0
615 1 -43.57776216 -52.12032388 0.0
616 1 -24.84315168 -41.51870464 0.0
617 1 -57.3082862696 -46.864398936 0.0
618 1 -49.980869624 -17.67409256 0.0
619 1 44.61516952 -25.30186128 0.0
620 1 54.04451144 4.43500984 0.0
621 1 -58.3444708709 -13.90508704 0.0
622 1 -38.36738136 -2.70113424 0.0
623 1 -38.19323512 -39.70744368 0.0
624 1 48.71122448 -13.91080632 0.0
625 1 -49.561436304 -18.76250656 0.0
626 1 -48.938840152 -11.07451032 0.0
627 1 -54.62052464 -6.38411712 0.0
628 1 -22.25827056 -44.43553744 0.0
629 1 55.12288752 -23.36407584 0.0
630 1 52.90322328 -0.1248904 0.0
631 1 -42.87662512 50.06984528 0.0
632 1 55.48892144 -3.36363696 0.0
633 1 -28.2532432 -44.41277704 0.0
634 1 56.3827632 -23.27011624 0.0
635 1 54.79968984 32.20176408 0.0
636 1 -13.97710328 -54.616941336 0.0
637 1 -24.04151872 -50.504592264 0.0
638 1 -56.450332408 -6.33170984 0.0
639 1 -47.016111592 -37.87493968 0.0
640 1 -49.47708276 2.5223192 0.0
641 1 48.43564856 -9.30363448 0.0
642 1 -55.052050152 2.76054472 0.0
643 1 37.46513576 12.12569064 0.0
644 1 57.98637928 -18.15077704 0.0
645 1 51.05752992 6.4551996 0.0
646 1 -25.5400868 -14.23657184 0.0
647 1 56.31996784 -16.98556128 0.0
648 1 -51.297728008 17.10099736 0.0
649 1 55.29645016 6.07796056 0.0
650 1 -46.44323816 -11.99543112 0.0
651 1 0.0344324 -30.25966 0.0
652 1 -45.38610512 -28.32829416 0.0
653 1 47.64230272 -3.53124688 0.0
654 1 -51.314348936 6.27860224 0.0
655 1 -56.33502472 28.36377704 0.0
656 1 -37.93131544 -48.91396712 0.0
657 1 36.94678224 -11.90065448 0.0
658 1 -36.46414504 -12.9716772 0.0
659 1 51.23867936 -4.31268728 0.0
660 1 -53.095601184 -15.02734984 0.0
661 1 45.4846168 -8.19852952 0.0
662 1 -18.97295272 -6.7907696 0.0
663 1 -37.86793648 -22.48295656 0.0
664 1 -47.3188716 -32.44022304 0.0
665 1 34.47663688 -20.04362528 0.0
666 1 -21.27292032 -14.07981688 0.0
667 1 -19.562272 57.27111912 0.0
668 1 23.00656248 -28.03766136 0.0
669 1 56.95936 -13.96274672 0.0
670 1 -44.25345424 -28.66047928 0.0
671 1 47.785168 0.68351232 0.0
672 1 38.85106904 21.42068784 0.0
673 1 -27.178252 -8.57203352 0.0
674 1 -55.888500688 -26.40451512 0.0
675 1 44.75710104 -10.3612344 0.0
676 1 -57.018280256 -13.83260392 0.0
677 1 49.23856544 0.59433824 0.0
678 1 -38.88328376 16.0571704 0.0
679 1 -56.517329688 11.8394932 0.0
680 1 2.04971992 -12.5812488 0.0
681 1 52.5041576 -21.47928128 0.0
682 1 40.83904408 -8.018664 0.0
683 1 14.10923032 -40.92915192 0.0
684 1 55.33788576 -14.71535728 0.0
685 1 40.97467272 3.44277312 0.0
686 1 -53.575845624 6.39462192 0.0
687 1 33.20170432 -41.98605152 0.0
688 1 54.9511924 -31.2441932 0.0
689 1 44.7586184 4.54180864 0.0
690 1 -51.260342592 -24.58683456 0.0
691 1 41.83221456 -13.51454192 0.0
692 1 -24.79681384 -38.6961816 0.0
693 1 49.5132076 -5.701772 0.0
694 1 -51.191746248 -7.23769048 0.0
695 1 38.64564184 -28.424238 0.0
696 1 38.75419144 14.86160744 0.0
697 1 -46.41744304 -44.6442328 0.0
698 1 58.29265256 -4.99689992 0.0
699 1 54.49026512 9.16228656 0.0
700 1 42.0477964 -26.8035808 0.0
701 1 47.51449432 -5.6410776 0.0
702 1 -53.090979072 -8.24428376 0.0
703 1 50.27632296 -20.8386052 0.0
704 1 -41.39451456 -1.7560524 0.0
705 1 -41.8114384 7.30165304 0.0
706 1 -31.30115256 -17.31506184 0.0
707 1 -55.639478568 -5.44312048 0.0
708 1 -40.1440932 23.14102392 0.0
709 1 45.35774216 -24.30950784 0.0
710 1 32.06345088 -41.852874 0.0
711 1 52.69651216 -15.26744288 0.0
712 1 -52.700550672 5.47195032 0.0
713 1 -53.2511656 -13.5471068 0.0
714 1 -29.20147648 -18.45133104 0.0
715 1 -33.35168952 -17.5821172 0.0
716 1 -16.96606904 -23.97860664 0.0
717 1 -53.198548224 -12.38189104 0.0
718 1 -47.54600872 -21.48710152 0.0
719 1 34.93336224 -17.69311792 0.0
720 1 37.68632016 24.31114192 0.0
721 1 45.36474536 0.92827416 0.0
722 1 -29.61863376 -26.00393208 0.0
723 1 -41.4595276 -37.47692448 0.0
724 1 45.06687592 -5.25905304 0.0
725 1 49.82403296 -0.4341984 0.0
726 1 -54.719608248 -10.25548608 0.0
727 1 37.91835952 -27.57615048 0.0
728 1 -33.927586 -14.99548528 0.0
729 1 -49.610271952 -20.83475344 0.0
730 1 51.66354016 0.35004328 0.0
731 1 51.32983768 -6.54355664 0.0
732 1 -47.734091328 2.87376312 0.0
733 1 50.73491584 -21.87087688 0.0
734 1 40.33808184 -18.95988008 0.0
735 1 -47.031133456 -8.38037928 0.0
736 1 -53.303327768 -3.19707752 0.0
737 1 -54.195745544 -25.40772632 0.0
738 1 -14.76321248 -17.61619944 0.0
739 1 -56.396933008 -11.18224288 0.0
740 1 40.66384736 -0.95091784 0.0
741 1 -42.48736392 -18.975754 0.0
742 1 -41.12559168 6.29039096 0.0
743 1 -39.7530812 -17.2786452 0.0
744 1 -44.42269824 2.66331696 0.0
745 1 32.06508496 -13.75475168 0.0
746 1 46.91186896 -10.9430836 0.0
747 1 57.16326984 -0.44692088 0.0
748 1 -48.428365232 -32.52939712 0.0
749 1 -19.18888472 -26.3296976 0.0
750 1 -55.552848984 -12.60132464 0.0
751 1 -55.209540448 -0.19737352 0.0
752 1 37.38740024 -34.85247528 0.0
753 1 -34.83811872 -32.80719072 0.0
754 1 -23.44589656 -42.85935056 0.0
755 1 49.71489976 22.16326048 0.0
756 1 8.4429412 -50.764831176 0.0
757 1 -36.28603032 -14.61521152 0.0
758 1 -27.15350736 -24.69526744 0.0
759 1 53.28513112 8.81317704 0.0
760 1 -41.96294096 -4.32949496 0.0
761 1 23.64151928 -27.13179744 0.0
762 1 -25.94300424 -10.2345932 0.0
763 1 -48.755613096 -9.90264152 0.0
764 1 -42.30644792 -13.84719392 0.0
765 1 -56.215164952 3.2348948 0.0
766 1 -22.947152 -40.96311744 0.0
767 1 -49.857578288 -7.1391788 0.0
768 1 -35.10972616 3.3948012 0.0
769 1 54.34401496 -12.59688928 0.0
770 1 40.32570952 -17.69463528 0.0
771 1 -23.92853376 25.05243064 0.0
772 1 33.76114328 -48.497136656 0.0
773 1 4.60705512 -17.88395512 0.0
774 1 56.50800376 -44.75068144 0.0
775 1 44.33539168 -8.33777648 0.0
776 1 -54.146197904 -21.31634016 0.0
777 1 -57.8802481184 -39.09408008 0.0
778 1 -44.38523112 5.08514024 0.0
779 1 49.91857616 -26.92718728 0.0
780 1 56.10590336 17.81882536 0.0
781 1 -47.72021332 -41.16095784 0.0
782 1 56.94080152 7.6673368 0.0
783 1 -20.56151192 -11.95061064 0.0
784 1 -54.510586072 21.84449816 0.0
785 1 46.60781336 -12.10666528 0.0
786 1 -41.65106512 -7.08105224 0.0
787 1 46.37554056 5.94233192 0.0
788 1 56.6337112 -42.2841544 0.0
789 1 54.70981544 -16.84748152 0.0
790 1 53.61976736 9.87941424 0.0
791 1 55.75527648 1.60921864 0.0
792 1 -28.82003552 -14.91074656 0.0
793 1 -54.773276104 -20.17201728 0.0
794 1 -53.640006608 -9.9317048 0.0
795 1 53.31606192 -13.00132408 0.0
796 1 -54.206892304 1.54117088 0.0
797 1 -55.686738496 -1.18680896 0.0
798 1 57.46674184 3.43600336 0.0
799 1 -40.25182576 -37.74187888 0.0
800 1 55.16467328 23.50612408 0.0
801 1 -54.318850128 4.85882016 0.0
802 1 -44.83121824 -10.09826424 0.0
803 1 -48.59071108 -24.74534032 0.0
804 1 -53.070739824 -29.70395608 0.0
805 1 -52.210233296 -14.07164648 0.0
806 1 -44.8187292 -8.76427136 0.0
807 1 -41.9328272 -31.06164312 0.0
808 1 54.10298816 -25.81227784 0.0
809 1 -50.947731416 -13.26090936 0.0
810 1 -45.37058136 -36.97993072 0.0
811 1 58.04695696 -6.10760744 0.0
812 1 47.12826784 2.94414528 0.0
813 1 -57.9646004952 -23.1128944 0.0
814 1 -23.5056572 -30.95741216 0.0
815 1 -40.52856888 -5.02432912 0.0
816 1 -46.77764096 -28.29771352 0.0
817 1 -47.431202928 -6.4855468 0.0
818 1 -52.240522136 8.72411968 0.0
819 1 56.68763584 -12.29446776 0.0
820 1 -13.57850448 -10.79975144 0.0
821 1 -30.19382992 -17.84893912 0.0
822 1 -51.847269112 -8.24335 0.0
823 1 -38.88048248 -10.27707928 0.0
824 1 -50.200828464 11.68694016 0.0
825 1 55.88110064 10.64334664 0.0
826 1 50.48746944 9.48011512 0.0
827 1 55.02951152 -10.73310432 0.0
828 1 -22.11914032 -26.44711792 0.0
829 1 35.34935232 -31.05954216 0.0
830 1 54.69744312 10.35819968 0.0
831 1 52.83412504 -14.02262408 0.0
832 1 28.27518656 -16.42507184 0.0
833 1 -41.59749064 -39.7128128 0.0
834 1 37.64196656 -21.91406328 0.0
835 1 -39.12372696 -29.80258448 0.0
836 1 -56.082022448 8.54845608 0.0
837 1 26.45178672 -25.26661184 0.0
838 1 -51.675223832 5.04335448 0.0
839 1 39.97473248 -31.0597756 0.0
840 1 -43.34385528 5.49424384 0.0
841 1 34.7901468 -33.26181512 0.0
842 1 -56.662704448 -12.59011952 0.0
843 1 -57.5308538016 0.33942176 0.0
844 1 -41.49827864 9.33083024 0.0
845 1 -58.2102470728 -26.24986112 0.0
846 1 58.21736816 -28.602236 0.0
847 1 -47.295574288 -26.953566 0.0
848 1 41.30849192 -24.07735176 0.0
849 1 -40.5088432 -12.31606096 0.0
850 1 42.60840256 -18.52906656 0.0
851 1 44.39281792 -6.27556752 0.0
852 1 -37.10984008 -21.15246528 0.0
853 1 -51.792270648 -18.02588664 0.0