ITEM: TIMESTEP
0
ITEM: NUMBER OF ATOMS
9304
ITEM: BOX BOUNDS pp pp pp
-5.8359999999999999e+01 5.8359999999999999e+01
-5.8359999999999999e+01 5.8359999999999999e+01
-5.0000000000000000e-01 5.0000000000000000e-01
ITEM: ATOMS id type xs ys zs c_002[1] c_002[2]
1 1 0.00802212 0.362844 0.5 -0.186247 -0.437499
2 1 0.187294 0.918977 0.5 0.20836 0.528468
3 1 0.422984 0.472425 0.5 0.372821 0.595287
4 1 0.14008 0.631482 0.5 0.0903944 -0.0613539
5 1 0.78989 0.126705 0.5 -0.598451 -0.372427
6 1 0.505354 0.211943 0.5 0.0411619 -0.246386
7 1 0.166972 0.540643 0.5 -0.448147 0.319843
8 1 0.342548 0.651321 0.5 0.0109965 -0.557376
9 1 0.118413 0.998661 0.5 -0.117587 0.165264
10 1 0.63693 0.399023 0.5 -0.18572 0.550723
11 1 0.0324367 0.557829 0.5 0.23095 0.707503
12 1 0.779721 0.398674 0.5 0.582058 0.62672
13 1 0.0971104 0.973207 0.5 -0.308973 0.219361
14 1 0.587188 0.216703 0.5 -0.717486 -0.0176998
15 1 0.33386 0.614985 0.5 -0.20772 0.43412
16 1 0.610457 0.723994 0.5 0.502412 0.714181
17 1 0.446064 0.953615 0.5 0.337942 0.0835753
18 1 0.532736 0.832063 0.5 0 0
19 1 0.125706 0.17341 0.5 0.692905 0.124219
20 1 0.55065 0.275752 0.5 -0.169739 -0.819218
21 1 0.127583 0.577932 0.5 0.81705 0.34681
22 1 0.223701 0.800491 0.5 0.636069 -0.453291
23 1 0.823526 0.55384 0.5 -0.173563 -0.646093
24 1 0.251787 0.685687 0.5 0.100839 -0.257174
25 1 0.292507 0.124335 0.5 -0.0573503 -0.561313
26 1 0.630816 0.337152 0.5 0.704937 0.0993247
27 1 0.926411 0.57711 0.5 -0.0949934 -0.794444
28 1 0.28117 0.451055 0.5 -0.435635 -0.500764
29 1 0.264352 0.886371 0.5 0.298314 -0.534508
30 1 0.96499 0.275312 0.5 0.548985 0.249185
31 1 0.23503 0.925317 0.5 -0.16499 0.148468
32 1 0.309244 0.101551 0.5 0.439147 -0.630602
33 1 0.35029 0.770853 0.5 0.475885 -0.185445
34 1 0.172974 0.765477 0.5 0.358503 -0.106538
35 1 0.503159 0.677776 0.5 -0.00975816 0.239732
36 1 0.793864 0.0279934 0.5 -0.239843 0.638201
37 1 0.368678 0.650603 0.5 -0.404976 -0.356556
38 1 0.290429 0.861388 0.5 -0.197495 -0.685626
39 1 0.931198 0.595217 0.5 -0.274401 -0.519018
40 1 0.370884 0.910385 0.5 0.112313 -0.464614
41 1 0.0655741 0.0649274 0.5 0.0273818 0.772811
42 1 0.43228 0.318449 0.5 -0.639934 0.318444
43 1 0.308752 0.512099 0.5 -0.142448 -0.394906
44 1 0.453036 0.20447 0.5 0.89111 -0.16828
45 1 0.552827 0.537273 0.5 -0.05114 -0.776418
46 1 0.284452 0.271224 0.5 0.633465 0.609462
47 1 0.100837 0.359076 0.5 0.0207637 -0.12703
48 1 0.953958 0.308389 0.5 0.192086 -0.100245
49 1 0.98472 0.504184 0.5 -0.13192 0.467979
50 1 0.868938 0.0230861 0.5 -0.305763 0.0243155
51 1 0.563087 0.536523 0.5 -0.163196 -0.238989
52 1 0.342637 0.200138 0.5 0.592915 0.078477
53 1 0.51298 0.304793 0.5 0.35128 0.00677757
54 1 0.459116 0.323714 0.5 -0.0405205 0.783618
55 1 0.857438 0.751573 0.5 -0.173694 0.141802
56 1 0.495523 0.622006 0.5 0.0259621 -0.0904258
57 1 0.0306787 0.363797 0.5 -0.585449 -0.00572725
58 1 0.441622 0.484022 0.5 0.0914338 -0.130911
59 1 0.902209 0.11781 0.5 0.432693 0.015506
60 1 0.564434 0.335054 0.5 0.420043 -0.0573302
61 1 0.733422 0.499994 0.5 0.644808 -0.237515
62 1 0.801143 0.482815 0.5 -0.088499 0.0631746
63 1 0.975244 0.855376 0.5 -0.172219 -0.314265
64 1 0.918981 0.420575 0.5 -0.018863 0.700707
65 1 0.892792 0.357749 0.5 0.364793 -0.789917
66 1 0.18202 0.87655 0.5 0.483938 -0.335355
67 1 0.972693 0.864883 0.5 -0.244547 -0.565657
68 1 0.0260842 0.314101 0.5 -0.141596 0.680742
69 1 0.153317 0.853222 0.5 0.233931 0.468068
70 1 0.23484 0.897163 0.5 -0.246711 -0.751119
71 1 0.178465 0.524665 0.5 -0.705963 0.169563
72 1 0.13621 0.540918 0.5 -0.418534 0.421337
73 1 0.914514 0.614787 0.5 0.119318 0.132591
74 1 0.24687 0.586448 0.5 -0.278383 0.470979
75 1 0.973123 0.755649 0.5 -0.136622 0.292005
76 1 0.160535 0.882187 0.5 0.417388 -0.663318
77 1 0.0205569 0.0410149 0.5 -0.0913593 0.618711
78 1 0.217185 0.644124 0.5 0.266461 -0.139231
79 1 0.998621 0.834438 0.5 -0.488338 -0.141142
80 1 0.71556 0.569119 0.5 0.0446719 -0.0655836
81 1 0.054936 0.904538 0.5 -0.169269 0.539316
82 1 0.949759 0.949188 0.5 -0.0976659 0.279094
83 1 0.243069 0.230932 0.5 -0.507846 0.187065
84 1 0.491839 0.589553 0.5 -0.723996 0.21069
85 1 0.375196 0.679484 0.5 0.200957 -0.919951
86 1 0.244167 0.34661 0.5 0.706896 -0.532747
87 1 0.135701 0.388221 0.5 0.318797 0.0794738
88 1 0.713501 0.503588 0.5 0.520465 0.351808
89 1 0.21101 0.564954 0.5 0.222819 0.467882
90 1 0.895812 0.106025 0.5 0.00327444 -0.221395
91 1 0.534785 0.356001 0.5 0.112792 -0.541582
92 1 0.187875 0.210851 0.5 0.0597701 0.219522
93 1 0.10368 0.668463 0.5 -0.135543 -0.402786
94 1 0.738546 0.304433 0.5 0.476846 -0.29638
95 1 0.00757535 0.918391 0.5 0.587575 -0.404313
96 1 0.574465 0.000632163 0.5 -0.130797 -0.822174
97 1 0.561679 0.421772 0.5 0.0343863 -0.475614
98 1 0.699206 0.367287 0.5 -0.70582 0.313425
99 1 0.246241 0.317233 0.5 -0.0033957 -0.841811
100 1 0.673622 0.457101 0.5 -0.469746 0.00271615
101 1 0.307046 0.741493 0.5 0.577118 0.6483
102 1 0.442121 0.275308 0.5 -0.392278 0.602582
103 1 0.991666 0.0718228 0.5 0.230602 0.863377
104 1 0.935347 0.76699 0.5 -0.672186 -0.160124
105 1 0.0939927 0.31451 0.5 0.27516 0.105492
106 1 0.141585 0.904244 0.5 0.32911 0.189154
107 1 0.401215 0.129335 0.5 -0.275725 0.418567
108 1 0.788724 0.26045 0.5 0.349634 0.0422307
109 1 0.888501 0.0224991 0.5 -0.230289 0.955696
110 1 0.433898 0.713052 0.5 0.332799 0.213071
111 1 0.49814 0.280627 0.5 -0.25508 0.308425
112 1 0.0267243 0.193507 0.5 -0.400545 0.582125
113 1 0.389906 0.0783779 0.5 0.278809 0.314507
114 1 0.28875 0.35387 0.5 0.2812 -0.290667
115 1 0.390636 0.414401 0.5 0.797545 0.252216
116 1 0.428961 0.50011 0.5 0.323622 -0.0758744
117 1 0.941342 0.677131 0.5 0.210016 -0.887772
118 1 0.151724 0.25545 0.5 -0.151014 0.244605
119 1 0.0500241 0.433909 0.5 0.607979 -0.20003
120 1 0.539888 0.061576 0.5 -0.832609 0.104372
121 1 0.336081 0.592394 0.5 0.251251 0.254479
122 1 0.471958 0.952863 0.5 -0.191324 -0.576622
123 1 0.200893 0.727162 0.5 0.043669 -0.354286
124 1 0.28975 0.431285 0.5 0.449408 -0.484369
125 1 0.392342 0.348624 0.5 0.321331 -0.0683291
126 1 0.350674 0.333501 0.5 0.350861 -0.187732
127 1 0.764172 0.971596 0.5 0.149185 0.53227
128 1 0.394972 0.708327 0.5 0.287491 -0.521592
129 1 0.935192 0.304891 0.5 0.868128 0.46105
130 1 0.17981 0.355511 0.5 0.148541 0.00600017
131 1 0.539401 0.816026 0.5 -0.0853963 -0.141997
132 1 0.360932 0.796236 0.5 0.231257 -0.111265
133 1 0.432147 0.475069 0.5 0.334765 0.154092
134 1 0.689284 0.304984 0.5 0.95805 -0.0189325
135 1 0.209696 0.064444 0.5 0.307723 0.729783
136 1 0.664458 0.264353 0.5 0.369971 -0.749805
137 1 0.57875 0.424974 0.5 0.298998 -0.00567307
138 1 0.888962 0.620526 0.5 -0.780368 0.334913
139 1 0.846872 0.343376 0.5 -0.486158 -0.0608291
140 1 0.986164 0.884923 0.5 0.388869 -0.831203
141 1 0.938229 0.35881 0.5 -0.0176218 0.755448
142 1 0.0858187 0.246529 0.5 0.011354 -0.780913
143 1 0.695854 0.0451374 0.5 -0.0466603 -0.344149
144 1 0.310274 0.0593766 0.5 0.688615 -0.159724
145 1 0.0976452 0.183359 0.5 0.875438 -0.387785
146 1 0.208931 0.991142 0.5 -0.409489 -0.553181
147 1 0.762381 0.669221 0.5 -0.514914 -0.121306
148 1 0.232428 0.118662 0.5 0.0224353 0.401979
149 1 0.857844 0.0565107 0.5 -0.610832 -0.12919
150 1 0.0669401 0.270478 0.5 0.0209446 -0.89025
151 1 0.80207 0.112903 0.5 -0.0644724 -0.91147
152 1 0.524952 0.542125 0.5 0 0
153 1 0.866578 0.0813369 0.5 -0.310814 -0.122272
154 1 0.293996 0.96218 0.5 0.475106 0.598467
155 1 0.583096 0.407743 0.5 0.39156 0.668514
156 1 0.907975 0.371967 0.5 0.319285 -0.514022
157 1 0.641554 0.26245 0.5 -0.767695 0.562725
158 1 0.00223955 0.296715 0.5 -0.566479 0.0426247
159 1 0.648434 0.100173 0.5 -0.358312 -0.426946
160 1 0.913005 0.834875 0.5 -0.0453458 -0.0135053
161 1 0.9794 0.87837 0.5 0.252124 -0.176271
162 1 0.213719 0.589062 0.5 0.25724 -0.365112
163 1 0.859597 0.886151 0.5 -0.352175 0.621861
164 1 0.983986 0.632059 0.5 0.106803 0.0548726
165 1 0.272064 0.664156 0.5 0.153854 -0.552284
166 1 0.248802 0.597324 0.5 -0.705483 0.30166
167 1 0.640367 0.727645 0.5 -0.75081 0.174676
168 1 0.0192024 0.228785 0.5 -0.10892 -0.200821
169 1 0.187289 0.13366 0.5 -0.263594 -0.793725
170 1 0.60472 0.266223 0.5 0.284186 0.612532
171 1 0.671474 0.393181 0.5 0.15645 0.382808
172 1 0.334239 0.450915 0.5 0.337086 0.622812
173 1 0.590287 0.518841 0.5 -0.340312 -0.537762
174 1 0.653609 0.0389505 0.5 -0.447868 -0.212528
175 1 0.714767 0.270442 0.5 0.340735 0.00301462
176 1 0.121215 0.540833 0.5 0.465603 0.497614
177 1 0.964416 0.307853 0.5 0.284763 -0.738724
178 1 0.872519 0.516384 0.5 -0.299201 -0.0343526
179 1 0.418486 0.648183 0.5 0.0972339 -0.279897
180 1 0.965496 0.143683 0.5 0.0295065 -0.317833
181 1 0.194081 0.418607 0.5 0.568435 0.248206
182 1 0.906114 0.0590698 0.5 0.127587 -0.644589
183 1 0.756058 0.844372 0.5 -0.661939 0.147843
184 1 0.602341 0.109189 0.5 -0.339907 -0.240904
185 1 0.607405 0.117654 0.5 -0.302897 -0.613145
186 1 0.80114 0.23062 0.5 0.616419 -0.599514
187 1 0.282257 0.733412 0.5 -0.494549 0.0353954
188 1 0.800335 0.422721 0.5 0.285953 -0.179019
189 1 0.0425497 0.10216 0.5 -0.147731 0.0877247
190 1 0.88306 0.26344 0.5 -0.671178 0.179769
191 1 0.148402 0.723486 0.5 0.26272 0.120528
192 1 0.191898 0.40947 0.5 0.421421 0.08666
193 1 0.403714 0.0214062 0.5 -0.580203 0.64635
194 1 0.18705 0.495765 0.5 0.0556418 -0.000796412
195 1 0.310984 0.631044 0.5 0.407139 0.0867631
196 1 0.470391 0.615871 0.5 0.275194 0.703239
197 1 0.389767 0.431519 0.5 -0.0795482 0.28928
198 1 0.976475 0.702194 0.5 -0.00974167 0.102492
199 1 0.752171 0.427974 0.5 0.475817 -0.211495
200 1 0.343375 0.903999 0.5 -0.688945 -0.136589
201 1 0.972406 0.162157 0.5 0.601692 -0.75746
202 1 0.230477 0.869375 0.5 0.293553 -0.187948
203 1 0.126017 0.103521 0.5 -0.0476903 0.811888
204 1 0.310994 0.31153 0.5 -0.581067 0.35088
205 1 0.638534 0.511477 0.5 -0.415123 0.340094
206 1 0.477878 0.117212 0.5 -0.103099 0.395
207 1 0.83638 0.712426 0.5 0.0256447 -0.0636974
208 1 0.89341 0.326254 0.5 0.715362 -0.130229
209 1 0.398025 0.324228 0.5 -0.120581 0.658749
210 1 0.680852 0.671342 0.5 0.23913 0.396197
211 1 0.601666 0.792852 0.5 0.591111 -0.108326
212 1 0.197249 0.237574 0.5 -0.672868 0.477422
213 1 0.836167 0.463822 0.5 0.381817 0.269856
214 1 0.521114 0.880188 0.5 -0.854258 -0.174071
215 1 0.36398 0.240794 0.5 -0.715221 0.576386
216 1 0.994203 0.509181 0.5 0.00340725 0.498651
217 1 0.147242 0.292234 0.5 -0.181342 0.569628
218 1 0.755582 0.161303 0.5 0.32577 -0.780559
219 1 0.492744 0.181897 0.5 0.389451 0.400849
220 1 0.0516145 0.561548 0.5 -0.167561 -0.0129305
221 1 0.424396 0.283316 0.5 -0.163546 -0.46628
222 1 0.635687 0.920653 0.5 -0.528541 -0.251047
223 1 0.135435 0.106568 0.5 0.109997 0.477253
224 1 0.997269 0.259612 0.5 0.000763053 -0.387698
225 1 0.68147 0.0328113 0.5 -0.0335959 -0.206724
226 1 0.178622 0.986135 0.5 0.0722266 -0.0147045
227 1 0.807172 0.502462 0.5 0.213978 0.312843
228 1 0.489087 0.350955 0.5 0.373361 0.62106
229 1 0.356191 0.475577 0.5 -0.279207 0.302584
230 1 0.407767 0.191935 0.5 -0.495914 -0.0777075
231 1 0.541536 0.0896509 0.5 0.745224 0.455003
232 1 0.190561 0.826597 0.5 0.547623 -0.0654876
233 1 0.91328 0.701051 0.5 -0.051692 0.623977
234 1 0.362987 0.982597 0.5 -0.0948183 -0.238136
235 1 0.983124 0.284783 0.5 -0.112279 -0.803018
236 1 0.214151 0.860146 0.5 0.700165 -0.105161
237 1 0.981272 0.534109 0.5 -0.227455 0.640874
238 1 0.615401 0.921522 0.5 0.205749 0.206465
239 1 0.48244 0.4323 0.5 -0.303651 0.349667
240 1 0.534269 0.709316 0.5 -0.418794 -0.102978
241 1 0.3168 0.168108 0.5 -0.645112 -0.578992
242 1 0.634719 0.530097 0.5 0.513653 0.559642
243 1 0.75178 0.142086 0.5 0.587177 -0.674264
244 1 0.317748 0.897959 0.5 -0.749979 0.135528
245 1 0.463023 0.0148552 0.5 -0.210454 0.385036
246 1 0.103614 0.945155 0.5 0.133376 0.38881
247 1 0.663884 0.29626 0.5 0.340814 -0.511814
248 1 0.484161 0.810669 0.5 -0.257183 0.867714
249 1 0.378604 0.142684 0.5 0.237466 0.874819
250 1 0.162643 0.0901389 0.5 0.69337 0.25156
251 1 0.611805 0.409739 0.5 0.268256 -0.0477282
252 1 0.404756 0.632935 0.5 -0.269322 -0.175045
253 1 0.395428 0.219409 0.5 -0.00917386 0.0785567
254 1 0.746564 0.104439 0.5 0.186286 -0.546314
255 1 0.238692 0.300251 0.5 -0.612011 0.66809
256 1 0.593018 0.541792 0.5 0.133476 0.271636
257 1 0.062519 0.22377 0.5 -0.0861401 -0.527133
258 1 0.794918 0.386386 0.5 0.246284 -0.0512903
259 1 0.781617 0.118124 0.5 -0.228321 -0.414106
260 1 0.904636 0.972934 0.5 -0.156413 -0.821815
261 1 0.535011 0.944642 0.5 0.530058 -0.0185285
262 1 0.259056 0.564316 0.5 -0.650001 0.378871
263 1 0.109859 0.02852 0.5 -0.200967 -0.482005
264 1 0.167465 0.412048 0.5 -0.528515 0.361212
265 1 0.899492 0.429947 0.5 -0.184692 -0.408844
266 1 0.986593 0.941329 0.5 0.437015 0.0693487
267 1 0.393482 0.358435 0.5 0.564485 0.439579
268 1 0.0597777 0.0450979 0.5 -0.361476 0.842223
269 1 0.714225 0.820653 0.5 -0.362225 -0.576168
270 1 0.212239 0.506613 0.5 0.54057 0.174409
271 1 0.6696 0.570997 0.5 0.0944583 -0.261225
272 1 0.730853 0.8223 0.5 -0.328066 -0.222691
273 1 0.00708715 0.0557661 0.5 0.226164 0.588303
274 1 0.429115 0.399408 0.5 0.342047 0.198545
275 1 0.624913 0.90588 0.5 -0.169611 0.810437
276 1 0.0529737 0.631498 0.5 -0.529526 -0.272758
277 1 0.968106 0.78346 0.5 -0.306777 -0.361362
278 1 0.861302 0.360504 0.5 -0.762776 0.546039
279 1 0.47124 0.580099 0.5 0.492635 0.262767
280 1 0.761805 0.198129 0.5 -0.59367 -0.128956
281 1 0.474201 0.0297157 0.5 0.253125 0.187227
282 1 0.149725 0.2054 0.5 -0.442556 -0.75777
283 1 0.469571 0.0408092 0.5 0.52886 0.307655
284 1 0.220155 0.329551 0.5 0.192468 0.63046
285 1 0.243084 0.162781 0.5 0.0483658 0.200323
286 1 0.620518 0.965977 0.5 0.210859 0.305602
287 1 0.0906171 0.457731 0.5 -0.0500745 -0.411836
288 1 0.133556 0.87803 0.5 0 0
289 1 0.617828 0.858524 0.5 0.539709 -0.497371
290 1 0.810947 0.168785 0.5 0.642113 -0.0263138
291 1 0.0491259 0.475297 0.5 -0.154396 -0.416431
292 1 0.806221 0.159939 0.5 0.270993 -0.0823644
293 1 0.06564 0.460466 0.5 -0.258268 -0.290636
294 1 0.0777528 0.772099 0.5 0.108854 0.603916
295 1 0.264856 0.252428 0.5 0.0792304 0.148124
296 1 0.846476 0.123832 0.5 -0.311022 0.0956237
297 1 0.510071 0.0667284 0.5 -0.310355 0.299412
298 1 0.302829 0.216654 0.5 -0.0918313 -0.587534
299 1 0.337246 0.00476433 0.5 0.287013 0.492076
300 1 0.420803 0.323783 0.5 -0.589497 -0.49961
301 1 0.0723441 0.849578 0.5 0.209571 0.0704503
302 1 0.908244 0.63055 0.5 -0.0258903 0.208689
303 1 0.347376 0.926031 0.5 0.617959 0.454091
304 1 0.109568 0.467373 0.5 0.653734 -0.0499618
305 1 0.434825 0.281514 0.5 -0.0253826 -0.248502
306 1 0.803322 0.960827 0.5 -0.679906 0.603769
307 1 0.667861 0.520734 0.5 0.455365 0.150512
308 1 0.0630981 0.628998 0.5 -0.169301 -0.481429
309 1 0.885734 0.337838 0.5 0.0744961 0.170124
310 1 0.555057 0.353994 0.5 0.356364 0.714924
311 1 0.810779 0.296645 0.5 0.213576 -0.235402
312 1 0.82228 0.866037 0.5 0.577328 0.436602
313 1 0.0265351 0.887705 0.5 -0.670501 -0.44688
314 1 0.254348 0.124393 0.5 -0.158502 0.152005
315 1 0.328328 0.51742 0.5 0.226637 -0.308591
316 1 0.761996 0.68864 0.5 -0.168856 -0.854746
317 1 0.271029 0.737271 0.5 -0.655275 -0.160322
318 1 0.995537 0.303327 0.5 -0.163103 0.407013
319 1 0.0608248 0.199863 0.5 -0.553148 0.383389
320 1 0.194154 0.847479 0.5 -0.117472 -0.231557
321 1 0.160098 0.448862 0.5 -0.0331602 0.392244
322 1 0.327023 0.24489 0.5 -0.633994 -0.0492433
323 1 0.16564 0.400782 0.5 -0.560884 0.429341
324 1 0.55483 0.91166 0.5 0.0839024 0.566264
325 1 0.288362 0.280993 0.5 -0.11174 0.420038
326 1 0.0865766 0.551787 0.5 0.662072 0.0775862
327 1 0.747062 0.959127 0.5 0.39557 -0.222871
328 1 0.378452 0.319954 0.5 0.145786 0.241824
329 1 0.523564 0.685836 0.5 0.203116 0.682522
330 1 0.997593 0.568011 0.5 -0.0795507 -0.0348784
331 1 0.24469 0.000947391 0.5 0.154871 -0.0464076
332 1 0.797647 0.131901 0.5 0.36933 -0.304336
333 1 0.807247 0.430735 0.5 0.321567 -0.379673
334 1 0.37143 0.149772 0.5 -0.257324 0.168361
335 1 0.296968 0.757378 0.5 -0.409015 -0.610978
336 1 0.405471 0.477596 0.5 0.190581 0.105084
337 1 0.661793 0.214814 0.5 0.122528 0.0764812
338 1 0.315809 0.683432 0.5 0.15554 0.340002
339 1 0.0563482 0.400698 0.5 -0.195474 -0.096388
340 1 0.865759 0.00100732 0.5 0.148684 0.536819
341 1 0.301152 0.593274 0.5 0.470767 -0.3076
342 1 0.834945 0.808443 0.5 0.368509 0.439369
343 1 0.0368901 0.504616 0.5 -0.375781 -0.265954
344 1 0.528467 0.599234 0.5 -0.406949 -0.0713884
345 1 0.761901 0.0254729 0.5 -0.485186 -0.516736
346 1 0.944753 0.925634 0.5 -0.30866 -0.132315
347 1 0.176301 0.314173 0.5 0.165951 0.439786
348 1 0.330994 0.380937 0.5 0.255288 -0.396627
349 1 0.295872 0.206472 0.5 0 0
350 1 0.752417 0.112365 0.5 0.157665 0.136043
351 1 0.461947 0.681647 0.5 -0.465448 -0.0902011
352 1 0.815249 0.32167 0.5 -0.616049 0.365771
353 1 0.228214 0.555777 0.5 0.191879 0.812171
354 1 0.785315 0.349868 0.5 0.701011 -0.47701
355 1 0.38965 0.758345 0.5 -0.395515 0.137211
356 1 0.836915 0.700885 0.5 -0.229898 -0.579252
357 1 0.260772 0.903007 0.5 -0.450512 0.382222
358 1 0.581159 0.143079 0.5 -0.155568 -0.861839
359 1 0.122347 0.951968 0.5 -0.367542 0.590118
360 1 0.724459 0.469485 0.5 -0.102827 0.00365074
361 1 0.791699 0.478049 0.5 -0.238592 0.534856
362 1 0.389006 0.277395 0.5 -0.153205 -0.477927
363 1 0.0280427 0.375052 0.5 -0.478654 0.369478
364 1 0.587548 0.70301 0.5 0.0941005 0.37638
365 1 0.423304 0.356692 0.5 0 0
366 1 0.823324 0.645181 0.5 -0.0482353 -0.136123
367 1 0.241292 0.146161 0.5 0.312864 -0.0538439
368 1 0.0466936 0.946811 0.5 0.44486 -0.371441
369 1 0.0932196 0.54143 0.5 0.21898 -0.150036
370 1 0.18191 0.0401695 0.5 0.230862 0.451396
371 1 0.857317 0.733897 0.5 0.468099 -0.118096
372 1 0.19556 0.16089 0.5 0.289239 0.176963
373 1 0.0775246 0.0411675 0.5 -0.26373 0.388185
374 1 0.375201 0.892451 0.5 0.27207 0.21189
375 1 0.674556 0.323717 0.5 -0.113469 -0.346839
376 1 0.763356 0.563344 0.5 -0.321546 0.163429
377 1 0.130037 0.993612 0.5 -0.617902 -0.0297081
378 1 0.0136828 0.765997 0.5 -0.557965 0.58942
379 1 0.172026 0.908878 0.5 0.422041 0.195355
380 1 0.994871 0.0119451 0.5 -0.690164 0.472934
381 1 0.231131 0.616607 0.5 0.898604 -0.251308
382 1 0.942875 0.74423 0.5 0.124925 0.412878
383 1 0.722542 0.323357 0.5 0.487667 -0.368826
384 1 0.210452 0.373621 0.5 0.230959 -0.0111749
385 1 0.223691 0.0982158 0.5 0.11585 0.452405
386 1 0.349301 0.705982 0.5 -0.235 -0.824575
387 1 0.127576 0.551086 0.5 0.688313 0.281968
388 1 0.486588 0.981684 0.5 -0.561288 0.086753
389 1 0.713024 0.27992 0.5 -0.0836776 0.0702599
390 1 0.684182 0.654366 0.5 0.75609 -0.106125
391 1 0.542755 0.54112 0.5 0 0
392 1 0.0631022 0.00445178 0.5 -0.0771137 0.450812
393 1 0.982212 0.615023 0.5 0.275732 0.00686776
394 1 0.136692 0.528399 0.5 -0.132102 0.458237
395 1 0.599475 0.468816 0.5 0.362567 -0.0531938
396 1 0.481252 0.100379 0.5 -0.299109 0.304109
397 1 0.937423 0.0804172 0.5 -0.0970897 -0.587336
398 1 0.90449 0.609371 0.5 -0.101314 0.20129
399 1 0.425639 0.439107 0.5 -0.702472 0.0804639
400 1 0.54387 0.996561 0.5 0.0663925 -0.00934646
401 1 0.815729 0.686859 0.5 0.71017 -0.44397
402 1 0.592698 0.409473 0.5 0.392468 0.77974
403 1 0.293824 0.798477 0.5 0.632185 0.206249
404 1 0.758999 0.446609 0.5 -0.788279 -0.433331
405 1 0.412395 0.317733 0.5 -0.290661 -0.0935587
406 1 0.860883 0.274398 0.5 -0.719256 0.235011
407 1 0.897562 0.841974 0.5 -0.0887391 -0.064
408 1 0.633014 0.126191 0.5 -0.02521 -0.180873
409 1 0.4619 0.671386 0.5 -0.157878 0.0530099
410 1 0.10677 0.707925 0.5 0.714186 0.0476304
411 1 0.339342 0.825288 0.5 -0.661593 0.00257634
412 1 0.502679 0.729738 0.5 -0.392787 -0.824384
413 1 0.136279 0.270822 0.5 0.467071 0.480018
414 1 0.227853 0.476932 0.5 0.170663 0.11583
415 1 0.613686 0.0462413 0.5 0.855442 0.0524107
416 1 0.631453 0.300566 0.5 -0.288725 -0.346236
417 1 0.350744 0.103031 0.5 -0.704446 0.680495
418 1 0.491225 0.610613 0.5 -0.592046 0.222839
419 1 0.349718 0.668176 0.5 -0.592859 -0.0464935
420 1 0.219978 0.617254 0.5 0.509553 0.0183325
421 1 0.650003 0.778617 0.5 0.269738 -0.837859
422 1 0.704706 0.751755 0.5 -0.936666 -0.19255
423 1 0.730786 0.710245 0.5 0.526993 -0.605303
424 1 0.542594 0.932091 0.5 0.265753 -0.44276
425 1 0.496058 0.761464 0.5 -0.116509 -0.13895
426 1 0.209123 0.525859 0.5 0.242076 0.00607794
427 1 0.473722 0.202431 0.5 0.223679 -0.866762
428 1 0.193443 0.90784 0.5 0.343191 -0.229766
429 1 0.725642 0.57076 0.5 0.164388 0.262709
430 1 0.0597372 0.894959 0.5 -0.0802243 0.330039
431 1 0.68121 0.431902 0.5 -0.888856 -0.162778
432 1 0.811382 0.906171 0.5 0.0100412 0.134083
433 1 0.797103 0.33591 0.5 -0.417134 0.335367
434 1 0.0798122 0.202423 0.5 0.231431 -0.671681
435 1 0.934751 0.109738 0.5 -0.475074 0.19791
436 1 0.837947 0.7308 0.5 0.10701 0.503574
437 1 0.298189 0.4795 0.5 -0.351867 0.381112
438 1 0.352555 0.381178 0.5 -0.325976 -0.2789
439 1 0.916221 0.132662 0.5 -0.672355 -0.607152
440 1 0.613534 0.912381 0.5 -0.223787 0.720074
441 1 0.870078 0.553151 0.5 0.278165 -0.607445
442 1 0.19274 0.968706 0.5 -0.689699 0.328145
443 1 0.169117 0.549929 0.5 -0.163936 0.274469
444 1 0.645487 0.661792 0.5 -0.69626 0.173464
445 1 0.183171 0.418786 0.5 0.511409 -0.0271603
446 1 0.954154 0.554188 0.5 -0.273698 -0.109657
447 1 0.353713 0.606603 0.5 0.320352 0.149468
448 1 0.0580062 0.610244 0.5 -0.0346146 -0.339471
449 1 0.25256 0.190694 0.5 -0.17914 0.193286
450 1 0.288833 0.489717 0.5 -0.0641489 0.474886
451 1 0.369184 0.729866 0.5 0.253949 -0.383084
452 1 0.843307 0.971913 0.5 -0.669701 0.245705
453 1 0.385547 0.18319 0.5 0.0671356 0.890705
454 1 0.704766 0.761202 0.5 -0.00975256 -0.257512
455 1 0.31159 0.673783 0.5 -0.357289 0.341673
456 1 0.568944 0.22661 0.5 0 0
457 1 0.760158 0.91503 0.5 0.873107 0.163291
458 1 0.372354 0.981428 0.5 -0.288165 -0.643542
459 1 0.269539 0.262379 0.5 0.649164 0.285144
460 1 0.371071 0.930856 0.5 0.180094 0.626595
461 1 0.276013 0.366258 0.5 -0.140122 -0.820764
462 1 0.50388 0.788791 0.5 -0.275899 0.0281843
463 1 0.880699 0.641541 0.5 -0.44546 -0.194585
464 1 0.439953 0.112128 0.5 0 0
465 1 0.214626 0.803189 0.5 0.476177 -0.488172
466 1 0.834525 0.379577 0.5 -0.540481 -0.343532
467 1 0.67265 0.637483 0.5 0.179289 0.397225
468 1 0.280804 0.24171 0.5 0.469026 0.0438084
469 1 0.907576 0.950895 0.5 -0.526644 -0.621861
470 1 0.180699 0.995834 0.5 -0.362662 0.238062
471 1 0.00229849 0.461872 0.5 -0.288546 -0.66713
472 1 0.758173 0.378731 0.5 0 0
473 1 0.87936 0.883676 0.5 -0.759525 0.523744
474 1 0.273172 0.849009 0.5 -0.280045 0.267633
475 1 0.134884 0.701188 0.5 0.2809 0.404927
476 1 0.375874 0.209424 0.5 0.0949792 0.453962
477 1 0.3315 0.624411 0.5 0.0269708 -0.319482
478 1 0.29087 0.134705 0.5 -0.0768445 0.140113
479 1 0.803034 0.570725 0.5 0.406363 0.3822
480 1 0.171461 0.976658 0.5 0.277062 -0.488495
481 1 0.220607 0.564749 0.5 0.654012 0.265934
482 1 0.1455 0.544222 0.5 -0.789338 0.319863
483 1 0.319636 0.355117 0.5 -0.350079 -0.221122
484 1 0.330143 0.182723 0.5 0.0064542 -0.864716
485 1 0.556589 0.0826627 0.5 0.0965967 -0.166606
486 1 0.0811003 0.734218 0.5 0.585526 -0.518032
487 1 0.740596 0.882015 0.5 -0.247874 -0.500859
488 1 0.0893186 0.518984 0.5 -0.30552 -0.314732
489 1 0.748927 0.774883 0.5 -0.215772 -0.26493
490 1 0.836422 0.938778 0.5 0 0
491 1 0.000716354 0.761545 0.5 -0.2106 -0.290365
492 1 0.253466 0.839094 0.5 0.343147 0.151274
493 1 0.964455 0.0313781 0.5 0.729674 0.425939
494 1 0.635906 0.205869 0.5 -0.137076 -0.538211
495 1 0.346811 0.294203 0.5 0.422047 0.0627668
496 1 0.0884428 0.0709233 0.5 0.271183 0.597568
497 1 0.880284 0.551043 0.5 0.253531 -0.632113
498 1 0.803617 0.707505 0.5 0.0187781 0.121078
499 1 0.76326 0.678662 0.5 -0.628613 -0.421971
500 1 0.195834 0.885458 0.5 0.00778883 0.236864
501 1 0.0168055 0.677963 0.5 0.599776 -0.219694
502 1 0.319931 0.0803597 0.5 0.278287 0.103421
503 1 0.182545 0.67813 0.5 0.328696 -0.528672
504 1 0.482272 0.737793 0.5 0.0584034 -0.639995
505 1 0.140483 0.931002 0.5 0.622719 0.308725
506 1 0.97202 0.681494 0.5 0.434951 -0.270422
507 1 0.0252646 0.615747 0.5 0.696883 0.520277
508 1 0.201029 0.375066 0.5 0.591421 -0.184284
509 1 0.671616 0.75299 0.5 -0.301344 0.48922
510 1 0.724259 0.729816 0.5 -0.258687 -0.374326
511 1 0.907624 0.621015 0.5 -0.466679 0.591073
512 1 0.347516 0.253267 0.5 -0.515985 0.72613
513 1 0.88301 0.763813 0.5 0.442369 0.179187
514 1 0.0151145 0.180998 0.5 0.235742 0.235899
515 1 0.881294 0.627539 0.5 -0.849662 0.142293
516 1 0.290729 0.653483 0.5 0.217049 0.426056
517 1 0.933412 0.668762 0.5 0.373784 -0.843006
518 1 0.16409 0.0338241 0.5 0.118791 0.262675
519 1 0.887576 0.75545 0.5 -0.324444 -0.125349
520 1 0.068051 0.918947 0.5 0.420172 0.557311
521 1 0.903893 0.534717 0.5 0.0892448 0.874454
522 1 0.092684 0.89799 0.5 0.181799 -0.409089
523 1 0.561498 0.294881 0.5 0.203009 -0.0983393
524 1 0.0692488 0.987951 0.5 -0.494926 0.195401
525 1 0.275624 0.288631 0.5 0.533608 -0.0500736
526 1 0.0963046 0.0889747 0.5 0.0533051 0.0355834
527 1 0.326917 0.257425 0.5 -0.411137 0.186301
528 1 0.560774 0.689404 0.5 -0.128013 -0.0642295
529 1 0.00775979 0.242007 0.5 0.17703 -0.900053
530 1 0.801423 0.520987 0.5 0.644366 0.157563
531 1 0.153451 0.48684 0.5 -0.216179 0.294679
532 1 0.833467 0.451571 0.5 -0.757503 0.323335
533 1 0.870553 0.569887 0.5 0.255344 0.282212
534 1 0.459865 0.159751 0.5 0.265862 -0.19045
535 1 0.254814 0.443259 0.5 0.0113741 -0.944965
536 1 0.875007 0.466773 0.5 -0.261299 0.758246
537 1 0.389849 0.0066358 0.5 -0.0128447 0.66617
538 1 0.4446 0.101302 0.5 0.412086 0.233083
539 1 0.340959 0.142092 0.5 -0.528199 0.381468
540 1 0.716467 0.587186 0.5 0.242673 0.696362
541 1 0.86581 0.666431 0.5 -0.0145614 -0.308451
542 1 0.197595 0.598113 0.5 0.604701 -0.28148
543 1 0.716952 0.849282 0.5 -0.25402 -0.0289115
544 1 0.225899 0.933045 0.5 -0.541408 0.155271
545 1 0.346478 0.736292 0.5 0.178042 -0.0181505
546 1 0.172898 0.680636 0.5 0 0
547 1 0.940153 0.128558 0.5 0.825899 -0.0100511
548 1 0.756903 0.0771657 0.5 -0.206557 -0.087294
549 1 0.45118 0.77964 0.5 -0.417851 0.283402
550 1 0.140227 0.847081 0.5 -0.832871 0.0265581
551 1 0.0438838 0.0212889 0.5 -0.326421 0.40522
552 1 0.814541 0.572692 0.5 0.0782502 0.781285
553 1 0.557137 0.823339 0.5 0.201298 0.386237
554 1 0.074145 0.726505 0.5 0.1241 -0.208409
555 1 0.9863 0.0172032 0.5 -0.454509 0.260668
556 1 0.90312 0.48033 0.5 -0.362326 0.818947
557 1 0.326449 0.983995 0.5 0.330708 0.502809
558 1 0.977869 0.907196 0.5 0.0372003 -0.472211
559 1 0.712496 0.400466 0.5 0.492064 -0.430894
560 1 0.648666 0.860868 0.5 -0.82293 0.227089
561 1 0.97107 0.588295 0.5 -0.406605 -0.767689
562 1 0.201386 0.607076 0.5 0.341272 -0.187761
563 1 0.188185 0.061188 0.5 0.495112 0.449237
564 1 0.103172 0.0566433 0.5 -0.614054 0.102561
565 1 0.910987 0.600198 0.5 -0.175786 -0.336983
566 1 0.861786 0.849264 0.5 0.397278 -0.0908362
567 1 0.752172 0.38825 0.5 0.365286 -0.295354
568 1 0.290394 0.556036 0.5 -0.721467 0.0452923
569 1 0.0216998 0.505721 0.5 0.217806 0.4186
570 1 0.116473 0.265854 0.5 0.544762 0.637694
571 1 0.756696 0.10164 0.5 0.0211158 -0.129212
572 1 0.263473 0.743126 0.5 -0.0952697 0.30958
573 1 0.110687 0.833108 0.5 0.445832 -0.284269
574 1 0.435619 0.994183 0.5 0.23052 -0.0201057
575 1 0.0813922 0.927659 0.5 0.600261 0.357551
576 1 0.365975 0.586611 0.5 0.523572 0.137482
577 1 0.162772 0.35907 0.5 -0.503662 0.737263
578 1 0.0944784 0.288017 0.5 0.373613 0.762579
579 1 0.318378 0.958783 0.5 -0.13546 -0.0705573
580 1 0.994912 0.651422 0.5 0.334203 -0.482843
581 1 0.729821 0.148825 0.5 0.116542 0.12097
582 1 0.968113 0.847177 0.5 -0.270192 -0.678074
583 1 0.843829 0.371511 0.5 -0.782712 0.259345
584 1 0.0597779 0.29919 0.5 0.577994 0.538463
585 1 0.470469 0.183395 0.5 0.0788003 -0.181879
586 1 0.357669 0.0832372 0.5 -0.603945 0.0643233
587 1 0.407115 0.422432 0.5 0.0288648 0.349325
588 1 0.152328 0.344403 0.5 -0.821225 -0.420945
589 1 0.639793 0.195246 0.5 -0.224939 -0.593489
590 1 0.45454 0.432384 0.5 0 0
591 1 0.0257473 0.204532 0.5 -0.275476 -0.17747
592 1 0.667092 0.668542 0.5 0.0686594 0.782649
593 1 0.466121 0.456824 0.5 0 0
594 1 0.559125 0.391372 0.5 -0.00598612 0.413049
595 1 0.454116 0.101797 0.5 0.245419 0.655295
596 1 0.003139 0.18424 0.5 0.3862 -0.497462
597 1 0.900761 0.522352 0.5 0.30276 0.806965
598 1 0.125686 0.524719 0.5 -0.12546 0.560541
599 1 0.285428 0.394681 0.5 -0.0995992 -0.732666
600 1 0.727005 0.670883 0.5 0.245266 -0.26235
601 1 0.238853 0.239532 0.5 0.329703 0.0377776
602 1 0.218068 0.474022 0.5 0.488741 0.110159
603 1 0.124463 0.911438 0.5 0.358189 0.588522
604 1 0.6775 0.685452 0.5 0.11869 0.0667748
605 1 0.1533 0.973567 0.5 -0.897356 0.0787382
606 1 0.27141 0.832125 0.5 0.681364 -0.170944
607 1 0.452007 0.540524 0.5 0.435996 0.198564
608 1 0.147255 0.863725 0.5 0.5531 -0.464083
609 1 0.00878466 0.864237 0.5 -0.197084 0.215078
610 1 0.305107 0.861293 0.5 0.021095 0.164048
611 1 0.597264 0.186602 0.5 -0.354611 -0.273641
612 1 0.122416 0.306249 0.5 0.760032 0.200567
613 1 0.203962 0.222325 0.5 -0.317422 -0.649228
614 1 0.06752 0.231758 0.5 0.156039 -0.383598
615 1 0.746046 0.406958 0.5 0.288828 0.375688
616 1 0.663996 0.954256 0.5 0 0
617 1 0.0532095 0.764944 0.5 0.34158 -0.696153
618 1 0.0978108 0.583198 0.5 -0.403014 -0.320178
619 1 0.722419 0.218534 0.5 -0.663656 -0.151474
620 1 0.787892 0.752477 0.5 -0.0882787 -0.930766
621 1 0.410712 0.863398 0.5 -0.635876 0.445104
622 1 0.046657 0.899433 0.5 -0.571029 -0.201417
623 1 0.0566585 0.161336 0.5 -0.489316 -0.0975931
624 1 0.698377 0.103425 0.5 0.198926 -0.134783
625 1 0.530072 0.821158 0.5 0 0
626 1 0.563893 0.437761 0.5 -0.0747339 0.196489
627 1 0.0618795 0.188132 0.5 -0.561656 -0.471591
628 1 0.0880663 0.586444 0.5 -0.105768 -0.404466
629 1 0.915154 0.825427 0.5 -0.491311 0.416779
630 1 0.570294 0.146816 0.5 -0.192658 -0.0175243
631 1 0.700712 0.946245 0.5 -0.135565 0.22176
632 1 0.655311 0.832262 0.5 -0.241033 0.626063
633 1 0.78572 0.211689 0.5 0.685221 -0.309105
634 1 0.2166 0.0581109 0.5 0.152173 0.454155
635 1 0.677101 0.59054 0.5 0.22911 0.414532
636 1 0.781105 0.00863633 0.5 -0.467003 0.402551
637 1 0.990393 0.592736 0.5 -0.582367 -0.318293
638 1 0.348724 0.0912956 0.5 -0.61776 0.310755
639 1 0.392064 0.691212 0.5 0.293152 -0.354676