ITEM: TIMESTEP
0
ITEM: NUMBER OF ATOMS
9891
ITEM: BOX BOUNDS pp pp pp
-5.8359999999999999e+01 5.8359999999999999e+01
-5.8359999999999999e+01 5.8359999999999999e+01
-5.0000000000000000e-01 5.0000000000000000e-01
ITEM: ATOMS id type xs ys zs c_002[1] c_002[2]
1 1 0.0182747 0.867995 0.5 0.28935 -0.0952087
2 1 0.0373924 0.791894 0.5 -0.891346 0.310672
3 1 0.23959 0.116023 0.5 0.426481 -0.638724
4 1 0.254265 0.676083 0.5 -0.199314 -0.0464789
5 1 0.988786 0.877592 0.5 0.469989 -0.559313
6 1 0.174538 0.283467 0.5 -0.17195 -0.325781
7 1 0.0788311 0.0600443 0.5 0.550236 0.437355
8 1 0.99488 0.771353 0.5 0.167866 -0.402681
9 1 0.238417 0.94692 0.5 0.455925 0.459494
10 1 0.909451 0.853662 0.5 0.556175 -0.34257
11 1 0.192679 0.108202 0.5 -0.114022 -0.40865
12 1 0.0960877 0.715451 0.5 -0.350539 0.839945
13 1 0.165829 0.960265 0.5 -0.149925 -0.4343
14 1 0.0614511 0.741277 0.5 -0.0296747 0.856533
15 1 0.0920301 0.912848 0.5 0.303498 -0.753177
16 1 0.00317781 0.0465679 0.5 0.188983 -0.577838
17 1 0.296919 0.932986 0.5 0.557302 -0.271399
18 1 0.0647601 0.170022 0.5 0.299218 0.30522
19 1 0.0597863 0.799178 0.5 0.0684581 0.283434
20 1 0.115912 0.0798077 0.5 -0.889378 0.13716
21 1 0.827216 0.858434 0.5 -0.572771 -0.535122
22 1 0.889766 0.854684 0.5 0.725632 -0.625292
23 1 0.103158 0.708023 0.5 -0.541303 0.590397
24 1 0.105171 0.0328024 0.5 -0.385278 -0.699396
25 1 0.149421 0.0237432 0.5 0.108548 0.868773
26 1 0.846172 0.902929 0.5 -0.18967 -0.870625
27 1 0.966508 0.000278259 0.5 0.67262 -0.245462
28 1 0.157984 0.0958538 0.5 -0.581248 0.1912
29 1 0.040604 0.122193 0.5 -0.146338 -0.0758432
30 1 0.959875 0.825392 0.5 0.545918 -0.622643
31 1 0.153389 0.883397 0.5 0.010045 0.443163
32 1 0.940126 0.118338 0.5 0.653179 -0.392547
33 1 0.122736 0.857335 0.5 -0.0820829 -0.295796
34 1 0.0152973 0.842608 0.5 -0.473101 0.663357
35 1 0.171536 0.786182 0.5 -0.821362 -0.525076
36 1 0.111109 0.30772 0.5 0.56554 0.357379
37 1 0.0406481 0.422058 0.5 0.843248 0.106769
38 1 0.146092 0.00423164 0.5 -0.259936 -0.415309
39 1 0.836809 0.855052 0.5 -0.164919 -0.295178
40 1 0.000872847 0.863989 0.5 0.209291 -0.541218
41 1 0.8656 0.81904 0.5 -0.308791 -0.580445
42 1 0.183856 0.830628 0.5 -0.000475068 -0.791774
43 1 0.0753217 0.0811113 0.5 -0.269088 0.734498
44 1 0.303357 0.940424 0.5 0.586364 -0.311713
45 1 0.104991 0.718894 0.5 -0.27614 0.857225
46 1 0.9295 0.822262 0.5 -0.180548 -0.146495
47 1 0.888419 0.883456 0.5 0.0617355 -0.886922
48 1 0.106102 0.164613 0.5 -0.428428 -0.00906386
49 1 0.965103 0.936636 0.5 0.763713 -0.488486
50 1 0.0605688 0.823328 0.5 -0.861954 0.030736
51 1 0.989294 0.0319369 0.5 0.860628 0.0360873
52 1 0.928243 0.85928 0.5 -0.429865 -0.684271
53 1 0.995485 0.532463 0.5 0.522697 0.0914161
54 1 0.0219973 0.744262 0.5 -0.52926 -0.0670795
55 1 0.149324 0.874121 0.5 -0.0216006 -0.343659
56 1 0.990145 0.00355532 0.5 0.216662 -0.366644
57 1 0.744873 0.716786 0.5 -0.79191 0.195859
58 1 0.123887 0.675974 0.5 -0.0709729 0.969629
59 1 0.32658 0.651994 0.5 -0.498823 0.352258
60 1 0.179412 0.156099 0.5 0.215019 -0.242532
61 1 0.995298 0.820524 0.5 -0.438265 0.784399
62 1 0.989015 0.827422 0.5 -0.0394905 0.693741
63 1 0.149459 0.285228 0.5 0.0207236 -0.520861
64 1 0.133843 0.643364 0.5 -0.356231 0.415387
65 1 0.950045 0.0718536 0.5 0.329891 -0.858011
66 1 0.23737 0.305371 0.5 0.154654 0.876381
67 1 0.130106 0.917057 0.5 0.143611 0.0756467
68 1 0.803647 0.795453 0.5 0.603374 -0.236838
69 1 0.130975 0.765007 0.5 -0.129594 -0.282379
70 1 0.983319 0.0673199 0.5 0.697389 -0.402873
71 1 0.328269 0.297818 0.5 0.659138 -0.498254
72 1 0.195703 0.135788 0.5 0.159536 -0.847447
73 1 0.211357 0.0834812 0.5 -0.401543 -0.558358
74 1 0.156221 0.83112 0.5 0.0230772 -0.357076
75 1 0.867194 0.746151 0.5 -0.37564 0.61779
76 1 0.0590987 0.980413 0.5 -0.387996 -0.199832
77 1 0.980134 0.783473 0.5 0.255489 -0.469502
78 1 0.941631 0.719408 0.5 -0.619184 -0.152793
79 1 0.237111 0.435182 0.5 -0.386327 -0.083463
80 1 0.0284645 0.179575 0.5 -0.390127 0.101694
81 1 0.0275841 0.105978 0.5 0.0365021 -0.1812
82 1 0.859888 0.183199 0.5 0.62892 -0.231912
83 1 0.908811 0.0647971 0.5 -0.151359 -0.427718
84 1 0.827303 0.991202 0.5 0.3464 -0.764608
85 1 0.0472494 0.848349 0.5 0.297453 0.112532
86 1 0.047876 0.704393 0.5 -0.544343 0.0291243
87 1 0.294083 0.912837 0.5 0.67038 -0.437418
88 1 0.258389 0.604237 0.5 -0.676582 -0.114247
89 1 0.05922 0.865689 0.5 0.115061 -0.576877
90 1 0.398829 0.0454256 0.5 0.235118 -0.365163
91 1 0.0134624 0.0459428 0.5 0.880488 -0.325055
92 1 0.981403 0.89761 0.5 0.700655 -0.610357
93 1 0.966627 0.692065 0.5 -0.877525 0.412367
94 1 0.0239634 0.0265959 0.5 0.40825 -0.17841
95 1 0.816821 0.826872 0.5 -0.391461 -0.376667
96 1 0.0132441 0.748361 0.5 -0.0626508 0.377575
97 1 0.971114 0.899392 0.5 0.534766 -0.73754
98 1 0.829279 0.926355 0.5 0.155495 -0.523264
99 1 0.176067 0.185963 0.5 0.206052 0.0211802
100 1 0.960132 0.172039 0.5 0.00141678 0.193707
101 1 0.157875 0.869433 0.5 -0.407279 -0.775201
102 1 0.114096 0.12083 0.5 0.232071 0.835862
103 1 0.952236 0.809057 0.5 -0.582948 0.465023
104 1 0.877023 0.261704 0.5 0.576822 -0.356361
105 1 0.199659 0.152763 0.5 0.115806 -0.92754
106 1 0.938745 0.173414 0.5 0.326841 -0.267339
107 1 0.00373284 0.74679 0.5 0.572904 0.653691
108 1 0.975919 0.696749 0.5 -0.914725 -0.0485945
109 1 0.244834 0.714885 0.5 0.306111 -0.897165
110 1 0.991942 0.943582 0.5 0.798179 -0.498417
111 1 0.191136 0.83906 0.5 -0.0293448 -0.862201
112 1 0.071457 0.858554 0.5 -0.354293 0.153585
113 1 0.0493991 0.925871 0.5 -0.520561 -0.587797
114 1 0.882478 0.911222 0.5 0.198536 -0.360197
115 1 0.057831 0.36059 0.5 0.320505 0.457091
116 1 0.0778047 0.753552 0.5 0.470521 -0.00907196
117 1 0.110352 0.919208 0.5 -0.0877386 -0.91669
118 1 0.212154 0.694695 0.5 -0.295708 -0.224949
119 1 0.0450377 0.81184 0.5 0.10126 -0.415648
120 1 0.0608761 0.95724 0.5 -0.613025 -0.719473
121 1 0.939236 0.876589 0.5 -0.270772 -0.714143
122 1 0.012916 0.0855222 0.5 0.16758 0.306986
123 1 0.101936 0.00448836 0.5 0.435236 -0.169326
124 1 0.215755 0.32789 0.5 -0.607907 0.141677
125 1 0.0977138 0.747418 0.5 -0.331808 0.532388
126 1 0.0209715 0.770003 0.5 -0.0311279 0.816105
127 1 0.085819 0.56337 0.5 0.453264 0.272568
128 1 0.0526494 0.999404 0.5 -0.661041 -0.43468
129 1 0.0713831 0.883181 0.5 0.0495089 -0.325217
130 1 0.777798 0.21035 0.5 -0.21329 -0.183323
131 1 0.212671 0.203403 0.5 0.220718 -0.259995
132 1 0.223628 0.607278 0.5 0.147213 0.32865
133 1 0.110436 0.578475 0.5 -0.301728 0.685823
134 1 0.142379 0.218978 0.5 -0.521307 -0.600443
135 1 0.881135 0.0301872 0.5 0.564585 -0.502948
136 1 0.006308 0.640743 0.5 -0.872182 0.204569
137 1 0.943311 0.108295 0.5 0.605334 -0.755314
138 1 0.152221 0.181694 0.5 0.0698621 0.765311
139 1 0.0526976 0.887612 0.5 0.222978 -0.547857
140 1 0.874173 0.974219 0.5 0.209423 -0.465425
141 1 0.153161 0.252659 0.5 -0.100936 -0.978529
142 1 0.254529 0.712416 0.5 0.143201 -0.961735
143 1 0.138666 0.99835 0.5 -0.696594 -0.20219
144 1 0.274212 0.191557 0.5 -0.371663 -0.501489
145 1 0.10075 0.0449588 0.5 0.610559 0.282876
146 1 0.969997 0.927137 0.5 0.4978 -0.592142
147 1 0.72477 0.0376521 0.5 -0.0372717 -0.738617
148 1 0.0753913 0.145853 0.5 -0.154826 0.422768
149 1 0.0537047 0.169678 0.5 0.809101 0.380816
150 1 0.19496 0.371265 0.5 0.653282 -0.658732
151 1 0.135861 0.743043 0.5 -0.33741 0.223326
152 1 0.963486 0.0435048 0.5 -0.00925838 -0.536521
153 1 0.130544 0.00434707 0.5 -0.869065 0.293572
154 1 0.969909 0.731723 0.5 -0.325326 0.395148
155 1 0.0471297 0.983668 0.5 -0.221375 -0.930744
156 1 0.266748 0.21132 0.5 -0.394645 -0.764958
157 1 0.0588283 0.709436 0.5 -0.902437 0.379764
158 1 0.962771 0.521685 0.5 -0.548054 0.445041
159 1 0.976569 0.907643 0.5 0.320489 -0.786465
160 1 0.365838 0.745054 0.5 0.416659 0.113008
161 1 0.182094 0.686329 0.5 -0.0032572 -0.545452
162 1 0.040156 0.662615 0.5 0.465553 -0.417254
163 1 0.179745 0.612895 0.5 0.587141 -0.666589
164 1 0.21334 0.385766 0.5 -0.873704 -0.260243
165 1 0.0697751 0.735517 0.5 -0.559461 0.757809
166 1 0.16556 0.973173 0.5 -0.736372 0.287314
167 1 0.885247 0.0518527 0.5 0.096839 -0.300081
168 1 0.123316 0.54232 0.5 -0.70824 0.554297
169 1 0.0490513 0.914962 0.5 -0.131261 -0.479981
170 1 0.0118735 0.890335 0.5 -0.086039 -0.538198
171 1 0.900514 0.945908 0.5 0.496398 -0.7028
172 1 0.861218 0.915951 0.5 0.00801663 -0.7691
173 1 0.952865 0.636004 0.5 -0.860899 0.144341
174 1 0.238201 0.08612 0.5 -0.725181 -0.635846
175 1 0.0765791 0.155503 0.5 -0.888692 0.422007
176 1 0.920302 0.0470551 0.5 0.4674 -0.578451
177 1 0.207146 0.226329 0.5 -0.283195 -0.635779
178 1 0.993882 0.962288 0.5 0.571018 -0.685063
179 1 0.000328417 0.971054 0.5 0.74589 -0.201295
180 1 0.987742 0.952833 0.5 0.823949 -0.473003
181 1 0.174069 0.883166 0.5 -0.487521 -0.55507
182 1 0.199195 0.0590634 0.5 0.244854 -0.420263
183 1 0.306884 0.607619 0.5 0.12392 -0.83115
184 1 0.0582454 0.921416 0.5 -0.376799 -0.693176
185 1 0.963959 0.862827 0.5 0.743656 -0.556301
186 1 0.855032 0.772125 0.5 -0.424331 0.595288
187 1 0.99064 0.762759 0.5 0.708449 0.0688355
188 1 0.8854 0.507059 0.5 -0.22697 -0.115797
189 1 0.06476 0.751595 0.5 0.233624 0.684582
190 1 0.169405 0.227711 0.5 -0.595368 -0.375277
191 1 0.103867 0.806285 0.5 -0.0107302 -0.69578
192 1 0.13321 0.059428 0.5 -0.699319 0.131172
193 1 0.0510057 0.739008 0.5 -0.375918 0.558143
194 1 0.173299 0.927648 0.5 0.0613424 -0.322049
195 1 0.0340395 0.00675468 0.5 -0.329394 -0.478983
196 1 0.179672 0.322957 0.5 -0.0752332 0.540384
197 1 0.000588824 0.728627 0.5 0.0611534 0.11867
198 1 0.165877 0.829805 0.5 0.00517145 -0.545506
199 1 0.00213379 0.150528 0.5 -0.349976 0.059548
200 1 0.039298 0.870352 0.5 0.610004 -0.353031
201 1 0.20756 0.962282 0.5 0.424296 0.669138
202 1 0.851692 0.918733 0.5 0.0120456 -0.816944
203 1 0.383385 0.0672562 0.5 -0.436931 -0.0914206
204 1 0.0345466 0.879706 0.5 0.712394 -0.0740122
205 1 0.874623 0.931453 0.5 -0.483896 -0.730563
206 1 0.405758 0.0734103 0.5 0.404592 -0.288953
207 1 0.0715364 0.744799 0.5 -0.331663 0.317328
208 1 0.000486194 0.0577781 0.5 -0.277084 -0.356139
209 1 0.802131 0.00549252 0.5 0.4616 -0.731891
210 1 0.279091 0.292375 0.5 0.768749 0.106745
211 1 0.215352 0.19423 0.5 0.0412549 -0.510011
212 1 0.173648 0.978748 0.5 -0.204673 -0.172249
213 1 0.846252 0.730056 0.5 -0.131104 -0.342056
214 1 0.320499 0.798169 0.5 0.651363 -0.0502254
215 1 0.949672 0.827093 0.5 0.787669 -0.441504
216 1 0.994744 0.886478 0.5 0.124808 -0.868608
217 1 0.0213581 0.917878 0.5 -0.424832 -0.595952
218 1 0.0382788 0.674006 0.5 -0.396029 -0.203314
219 1 0.16038 0.259692 0.5 -0.183703 -0.859072
220 1 0.0929461 0.761818 0.5 0.196322 -0.188153
221 1 0.919473 0.239769 0.5 0.621918 -0.353085
222 1 0.0947623 0.941381 0.5 0.283057 -0.590299
223 1 0.811168 0.0424009 0.5 0.118752 -0.793437
224 1 0.0180027 0.76025 0.5 0.0079002 0.84981
225 1 0.971162 0.656678 0.5 -0.405968 0.462775
226 1 0.99314 0.685134 0.5 -0.863165 0.266861
227 1 0.132614 0.712606 0.5 0.148082 -0.240717
228 1 0.0506138 0.726294 0.5 -0.513779 0.263157
229 1 0.0336506 0.823668 0.5 0.100139 -0.63511
230 1 0.949766 0.0253254 0.5 0.660538 -0.0554279
231 1 0.887756 0.655814 0.5 0.722367 0.396398
232 1 0.0802356 0.879275 0.5 -0.476925 0.364541
233 1 0.899321 0.0663091 0.5 0.1253 -0.831975
234 1 0.889885 0.376097 0.5 0.146198 0.610192
235 1 0.106117 0.739697 0.5 0.181004 0.486331
236 1 0.94155 0.0911456 0.5 0.79611 -0.481367
237 1 0.252742 0.159196 0.5 -0.136813 -0.526391
238 1 0.0729644 0.0005376 0.5 0.279946 -0.760396
239 1 0.920926 0.775459 0.5 -0.220224 0.474821
240 1 0.0192636 0.993378 0.5 0.501941 0.0656806
241 1 0.000971309 0.925629 0.5 0.257678 -0.404968
242 1 0.133165 0.223987 0.5 -0.245617 -0.543447
243 1 0.10044 0.249723 0.5 0.653458 0.292084
244 1 0.870801 0.875622 0.5 0.501327 -0.672833
245 1 0.946818 0.67309 0.5 -0.679018 0.336331
246 1 0.932402 0.926156 0.5 0.481411 -0.188072
247 1 0.0916665 0.667956 0.5 0.310026 0.845015
248 1 0.966909 0.880772 0.5 -0.157167 -0.787212
249 1 0.298289 0.0794313 0.5 0.29823 -0.394425
250 1 0.972793 0.0402109 0.5 -0.0378066 -0.376706
251 1 0.0800744 0.740172 0.5 -0.572546 0.389681
252 1 0.15846 0.713383 0.5 -0.198389 -0.901366
253 1 0.817549 0.897965 0.5 0.38513 -0.492879
254 1 0.949897 0.930518 0.5 0.342524 -0.707444
255 1 0.143926 0.894442 0.5 -0.500257 -0.406928
256 1 0.890603 0.777719 0.5 -0.204827 -0.843431
257 1 0.150182 0.101332 0.5 0.21718 0.250386
258 1 0.37221 0.0838332 0.5 -0.290033 -0.487509
259 1 0.935356 0.679913 0.5 -0.504498 0.00224214
260 1 0.137349 0.780089 0.5 -0.407474 -0.598056
261 1 0.0539692 0.513734 0.5 -0.100057 -0.648844
262 1 0.874754 0.806091 0.5 0.069628 -0.339274
263 1 0.244238 0.525792 0.5 -0.583226 -0.437374
264 1 0.14515 0.654337 0.5 -0.200603 0.635108
265 1 0.0465044 0.754188 0.5 -0.436295 0.738152
266 1 0.848824 0.960131 0.5 0.203579 -0.828575
267 1 0.0881962 0.0631739 0.5 0.469254 0.661992
268 1 0.802783 0.976977 0.5 0.266573 -0.799654
269 1 0.925723 0.748769 0.5 0.436818 -0.225086
270 1 0.114467 0.0581918 0.5 -0.697947 0.446117
271 1 0.183297 0.372499 0.5 0.56937 -0.587614
272 1 0.0349454 0.861514 0.5 0.346343 0.33309
273 1 0.134256 0.0890871 0.5 0.00212532 0.833774
274 1 0.865243 0.126716 0.5 0.65836 -0.705195
275 1 0.113267 0.970449 0.5 0.213171 0.260976
276 1 0.00849573 0.0108194 0.5 0.622766 -0.411639
277 1 0.121391 0.000454438 0.5 -0.799748 0.365799
278 1 0.135282 0.840528 0.5 -0.0889064 -0.853925
279 1 0.950411 0.624001 0.5 -0.671205 0.622631
280 1 0.774864 0.60443 0.5 -0.0907491 0.89339
281 1 0.876691 0.835657 0.5 0.415962 -0.227254
282 1 0.0426818 0.906631 0.5 0.702282 -0.298554
283 1 0.0774846 0.608285 0.5 0.0603551 -0.00558484
284 1 0.221153 0.0695583 0.5 -0.271819 -0.696122
285 1 0.160289 0.822027 0.5 -0.186143 -0.484262
286 1 0.953376 0.818407 0.5 0.216364 -0.222501
287 1 0.0210599 0.977026 0.5 -0.0345995 0.276172
288 1 0.974443 0.979752 0.5 0.850138 -0.103625
289 1 0.00354573 0.71066 0.5 -0.528734 0.224135
290 1 0.318177 0.669832 0.5 -0.0815812 0.829744
291 1 0.0368909 0.131413 0.5 0.443262 0.165891
292 1 0.0925137 0.863611 0.5 0.38157 -0.273057
293 1 0.957541 0.0801394 0.5 0.290752 -0.581508
294 1 0.0252036 0.845397 0.5 0.31882 0.201058
295 1 0.85985 0.856612 0.5 0.801048 -0.379784
296 1 0.819715 0.302133 0.5 0.157382 -0.26643
297 1 0.314369 0.0186253 0.5 0.256114 0.259774
298 1 0.288465 0.991799 0.5 -0.216819 0.602408
299 1 0.0567041 0.584409 0.5 -0.283112 -0.192535
300 1 0.903866 0.898283 0.5 -0.41429 -0.747018
301 1 0.208298 0.253914 0.5 0.000527225 -0.823446
302 1 0.00847176 0.526237 0.5 -0.708044 -0.00411156
303 1 0.135665 0.976398 0.5 0.239584 0.450531
304 1 0.110861 0.464785 0.5 0.568864 -0.0213816
305 1 0.413573 0.310525 0.5 0.509388 -0.664119
306 1 0.793692 0.112375 0.5 0.630524 -0.589238
307 1 0.104931 0.117966 0.5 0.100512 0.967648
308 1 0.100771 0.362263 0.5 0.20369 0.933765
309 1 0.458812 0.240587 0.5 0.684831 -0.524418
310 1 0.0876334 0.87171 0.5 0.359082 0.73098
311 1 0.16068 0.940636 0.5 0.298894 -0.899625
312 1 0.0986014 0.125281 0.5 -0.233741 0.821826
313 1 0.268368 0.766497 0.5 -0.371805 0.478956
314 1 0.0556824 0.990125 0.5 -0.174669 -0.463725
315 1 0.837623 0.167848 0.5 0.382767 -0.440479
316 1 0.0784918 0.473378 0.5 0.677724 -0.00322244
317 1 0.589949 0.216737 0.5 0.330044 -0.399648
318 1 0.831477 0.328411 0.5 0.448219 0.667103
319 1 0.187642 0.126943 0.5 0.242428 -0.603426
320 1 0.746928 0.134255 0.5 0.482562 -0.757586
321 1 0.275682 0.987376 0.5 0.528254 0.166308
322 1 0.934115 0.364192 0.5 0.0862559 0.897265
323 1 0.231212 0.328316 0.5 0.284494 0.0681537
324 1 0.787821 0.847513 0.5 0.491284 -0.853615
325 1 0.979323 0.3637 0.5 0.249616 0.766785
326 1 0.23321 0.107466 0.5 0.720727 -0.645874
327 1 0.122505 0.0633198 0.5 -0.576881 0.124428
328 1 0.0264893 0.325739 0.5 -0.0347348 0.837592
329 1 0.144192 0.347341 0.5 -0.248233 -0.177185
330 1 0.240002 0.288639 0.5 0.750285 0.526578
331 1 0.500399 0.332893 0.5 0.0828158 -0.872471
332 1 0.898722 0.464307 0.5 0.767108 0.0610754
333 1 0.232228 0.267853 0.5 0.433784 0.323306
334 1 0.933667 0.55719 0.5 -0.793373 0.409534
335 1 0.0952063 0.602167 0.5 -0.445368 0.297361
336 1 0.425027 0.465258 0.5 0 0
337 1 0.0901524 0.249433 0.5 0.521425 0.660792
338 1 0.272069 0.0163103 0.5 0 0
339 1 0.181385 0.0499154 0.5 0.26157 0.205342
340 1 0.949973 0.11698 0.5 0.44511 -0.795123
341 1 0.121031 0.276771 0.5 -0.640789 0.301869
342 1 0.956777 0.350836 0.5 -0.0334809 0.904104
343 1 0.406317 0.376339 0.5 0.126589 -0.339991
344 1 0.131394 0.329232 0.5 0.166291 0.449105
345 1 0.788179 0.297953 0.5 -0.318857 0.186037
346 1 0.863664 0.109062 0.5 0.545138 -0.754476
347 1 0.0675796 0.361432 0.5 0.79257 0.508484
348 1 0.041257 0.0902602 0.5 -0.401586 -0.306249
349 1 0.0408137 0.140564 0.5 0.611402 0.47771
350 1 0.134771 0.348144 0.5 0.306309 0.230783
351 1 0.95423 0.482585 0.5 -0.734818 0.379858
352 1 0.059446 0.272389 0.5 -0.0856186 0.31326
353 1 0.112512 0.0489266 0.5 -0.650921 0.655526
354 1 0.928094 0.880255 0.5 -0.306732 -0.472798
355 1 0.022156 0.222967 0.5 0.365913 -0.171355
356 1 0.058517 0.246141 0.5 0.664845 -0.133727
357 1 0.169823 0.319795 0.5 0.150169 -0.072433
358 1 0.871083 0.983312 0.5 0.110514 -0.835783
359 1 0.317775 0.430893 0.5 -0.365795 0.676468
360 1 0.0296793 0.0526488 0.5 -0.37383 -0.0795745
361 1 0.985352 0.288554 0.5 0.852373 0.324938
362 1 0.203908 0.30155 0.5 0.356121 0.0977248
363 1 0.122851 0.286667 0.5 -0.449567 -0.0381806
364 1 0.993624 0.0843244 0.5 0.863287 -0.356087
365 1 0.131521 0.821227 0.5 -0.0202397 -0.539014
366 1 0.801037 0.921274 0.5 0.75557 -0.390592
367 1 0.0348255 0.432571 0.5 0.263983 -0.48564
368 1 0.250446 0.379407 0.5 -0.653298 -0.37941
369 1 0.118372 0.198583 0.5 -0.732156 -0.587628
370 1 0.276161 0.226089 0.5 -0.527553 0.00968208
371 1 0.101139 0.30774 0.5 0.620205 0.496029
372 1 0.13813 0.831495 0.5 0.0466392 -0.497966
373 1 0.896316 0.394956 0.5 0.0458492 0.899516
374 1 0.913915 0.26719 0.5 0.786563 -0.318016
375 1 0.108103 0.211448 0.5 -0.381323 -0.229799
376 1 0.179899 0.175845 0.5 0.431467 -0.55275
377 1 0.945255 0.476859 0.5 -0.229598 0.196948
378 1 0.998501 0.359208 0.5 0.230008 0.87015
379 1 0.139505 0.100135 0.5 0.24539 0.490328
380 1 0.290869 0.437613 0.5 -0.466758 -0.216928
381 1 0.791255 0.351808 0.5 0.703617 0.305918
382 1 0.934827 0.191218 0.5 0.207588 -0.163377
383 1 0.998619 0.252246 0.5 0.604236 -0.353491
384 1 0.24602 0.189839 0.5 -0.0630491 -0.883195
385 1 0.199811 0.626593 0.5 -0.049957 0.199983
386 1 0.105083 0.258632 0.5 0.24269 0.240722
387 1 0.187192 0.0231617 0.5 0.502307 0.449502
388 1 0.0767764 0.30387 0.5 0.202448 -0.152631
389 1 0.460099 0.283445 0.5 0.398234 -0.881367
390 1 0.896803 0.367232 0.5 0.214547 0.89292
391 1 0.958052 0.191754 0.5 0.781834 0.32152
392 1 0.898228 0.18538 0.5 0.911439 0.161397
393 1 0.019865 0.232806 0.5 0.748535 -0.331677
394 1 0.0302322 0.252206 0.5 0.478293 0.664236
395 1 0.0583788 0.12285 0.5 -0.59449 0.648516
396 1 0.953117 0.200216 0.5 0.172806 0.302852
397 1 0.223695 0.381931 0.5 -0.657109 -0.650109
398 1 0.0415486 0.223528 0.5 -0.0510547 -0.422939
399 1 0.0781503 0.294242 0.5 0.00350917 -0.0868195
400 1 0.920669 0.352528 0.5 0.405199 0.85923
401 1 0.927027 0.220317 0.5 0.293216 -0.5338
402 1 0.087824 0.266915 0.5 0.518141 0.557203
403 1 0.215605 0.530781 0.5 -0.808908 0.326837
404 1 0.181957 0.332285 0.5 -0.273046 0.371089
405 1 0.302546 0.483025 0.5 -0.835087 -0.0301802
406 1 0.818951 0.145412 0.5 0.480888 -0.602812
407 1 0.91135 0.230393 0.5 0.217384 -0.796312
408 1 0.170885 0.384766 0.5 -0.1342 -0.699438
409 1 0.430077 0.233203 0.5 0.333723 -0.767532
410 1 0.160898 0.336993 0.5 -0.264472 0.212233
411 1 0.0210926 0.0111436 0.5 0.404692 -0.295754
412 1 0.894932 0.0461661 0.5 -0.504549 -0.594152
413 1 0.0776181 0.936994 0.5 -0.307818 0.0418745
414 1 0.990729 0.366261 0.5 0.053425 0.916564
415 1 0.0760045 0.0913726 0.5 -0.192149 0.872216
416 1 0.860459 0.406696 0.5 0.346996 0.779153
417 1 0.187803 0.271222 0.5 -0.165224 -0.678238
418 1 0.153089 0.330863 0.5 -0.266684 0.189933
419 1 0.106239 0.0978033 0.5 -0.042648 0.255679
420 1 0.308912 0.426602 0.5 -0.34158 0.0376637
421 1 0.793545 0.0370406 0.5 -0.195512 -0.772806
422 1 0.907388 0.212093 0.5 0.0734043 -0.821481
423 1 0.0817357 0.335444 0.5 0.113689 0.185228
424 1 0.871039 0.162219 0.5 0.495317 -0.684994
425 1 0.110938 0.364028 0.5 0.573633 0.386672
426 1 0.23241 0.38872 0.5 -0.231201 -0.835963
427 1 0.360778 0.322664 0.5 0.0309281 -0.662095
428 1 0.904524 0.314467 0.5 0.877428 0.119248
429 1 0.267341 0.231163 0.5 -0.0942277 -0.379754
430 1 0.340305 0.450459 0.5 -0.231831 0.25196
431 1 0.119411 0.188228 0.5 -0.294311 -0.655598
432 1 0.0712042 0.94424 0.5 -0.0645109 -0.404188
433 1 0.915151 0.80084 0.5 -0.362409 -0.353642
434 1 0.20472 0.323701 0.5 -0.0401148 0.340478
435 1 0.05497 0.11069 0.5 -0.280772 0.106963
436 1 0.934438 0.0384602 0.5 0.603183 -0.566675
437 1 0.992269 0.424877 0.5 0.555228 0.587696
438 1 0.355634 0.229142 0.5 0.11906 -0.542995
439 1 0.0842134 0.787429 0.5 0.0527562 0.43654
440 1 0.125667 0.405361 0.5 0.0988253 -0.226101
441 1 0.456693 0.292448 0.5 0.528774 -0.753957
442 1 0.0368084 0.383492 0.5 -0.131918 0.856913
443 1 0.328886 0.776228 0.5 0.805617 -0.328894
444 1 0.0970741 0.378152 0.5 0.434556 -0.146628
445 1 0.16238 0.349452 0.5 -0.332063 -0.621916
446 1 0.238827 0.425222 0.5 -0.631581 -0.332973
447 1 0.888596 0.277936 0.5 0.985297 0.137652
448 1 0.841377 0.472658 0.5 -0.225367 0.888233
449 1 0.298022 0.246229 0.5 0.930706 -0.0163292
450 1 0.296363 0.148164 0.5 -0.686399 -0.685751
451 1 0.860394 0.26969 0.5 0.00806049 -0.555365
452 1 0.800858 0.447279 0.5 0.695572 -0.410245
453 1 0.159884 0.322013 0.5 0.626655 -0.21474
454 1 0.086253 0.0357363 0.5 0.394448 0.63536
455 1 0.207568 0.0541862 0.5 -0.0369662 -0.697906
456 1 0.0553157 0.150774 0.5 0.725835 0.552849
457 1 0.864204 0.427434 0.5 0.0853289 0.25933
458 1 0.995728 0.233647 0.5 0.224452 -0.18311
459 1 0.0091667 0.233236 0.5 0.627958 -0.273029
460 1 0.0446267 0.244127 0.5 0.509921 0.182018
461 1 0.957041 0.37823 0.5 0.362494 0.521819
462 1 0.802139 0.275826 0.5 -0.0742635 -0.757568
463 1 0.30034 0.393834 0.5 -0.257837 -0.0518667
464 1 0.853579 0.909194 0.5 -0.461635 -0.883848
465 1 0.0972919 0.352135 0.5 0.535844 0.338541
466 1 0.935375 0.247814 0.5 0.898805 -0.235999
467 1 0.0667819 0.195261 0.5 0.206037 -0.631242
468 1 0.0694976 0.0982741 0.5 0.276131 0.64681
469 1 0.0765694 0.708122 0.5 -0.904178 0.309447
470 1 0.969375 0.296274 0.5 0.926122 0.271782
471 1 0.186267 0.230149 0.5 -0.483986 -0.810022
472 1 0.330518 0.197897 0.5 0.269385 -0.931161
473 1 0.293944 0.458101 0.5 -0.787335 0.452787
474 1 0.781407 0.840025 0.5 0.67238 -0.650525
475 1 0.219108 0.468733 0.5 -0.351702 -0.295424
476 1 0.916689 0.0301223 0.5 0.558901 -0.643338
477 1 0.900395 0.376523 0.5 0.55762 0.741086
478 1 0.322682 0.288615 0.5 0.877603 -0.437578
479 1 0.983196 0.373533 0.5 0.359929 0.631912
480 1 0.256831 0.358682 0.5 -0.140094 -0.789783
481 1 0.247485 0.261005 0.5 0.902759 0.350578
482 1 0.372455 0.376253 0.5 0.0328367 -0.715885
483 1 0.905179 0.222781 0.5 0.120658 -0.872271
484 1 0.950264 0.0096531 0.5 0.620467 -0.137594
485 1 0.144097 0.335847 0.5 -0.56827 -0.0992319
486 1 0.8422 0.0262257 0.5 0.163069 0.156024
487 1 0.403972 0.688439 0.5 0.598292 -0.217996
488 1 0.416534 0.21755 0.5 0.457284 -0.650441
489 1 0.209109 0.429147 0.5 -0.11178 -0.537747
490 1 0.319617 0.270513 0.5 0.245781 -0.777166
491 1 0.0132543 0.82934 0.5 -0.546766 0.0743075
492 1 0.074262 0.78674 0.5 -0.00325921 0.379959
493 1 0.724454 0.929113 0.5 -0.162282 -0.902277
494 1 0.225975 0.544572 0.5 -0.580116 0.435415
495 1 0.159654 0.501726 0.5 -0.49789 0.403657
496 1 0.0227896 0.733554 0.5 -0.671525 -0.395246
497 1 0.982108 0.868003 0.5 0.163081 -0.739722
498 1 0.868224 0.371684 0.5 0.693245 0.428658
499 1 0.0442028 0.376217 0.5 0.261195 0.139105
500 1 0.134978 0.25165 0.5 -0.769241 -0.24878
501 1 0.262388 0.25083 0.5 0.46092 -0.320255
502 1 0.267543 0.0272423 0.5 0.431373 -0.394359
503 1 0.745184 0.439052 0.5 0.218988 -0.846047
504 1 0.361535 0.265902 0.5 0.584996 -0.567026
505 1 0.859466 0.210995 0.5 0.688051 -0.670598
506 1 0.110917 0.181457 0.5 -0.237011 -0.851096
507 1 0.985381 0.858077 0.5 0.0689478 -0.931092
508 1 0.0529007 0.219288 0.5 -0.659611 -0.286388
509 1 0.0234442 0.165768 0.5 0.536129 -0.00520038
510 1 0.872626 0.903695 0.5 -0.161823 -0.907688
511 1 0.0610637 0.314 0.5 0.338915 0.63712
512 1 0.0827269 0.354938 0.5 0.066688 0.092545
513 1 0.770551 0.219783 0.5 -0.068038 -0.0645462
514 1 0.199677 0.467891 0.5 -0.732219 -0.594537
515 1 0.0639882 0.350838 0.5 0.344851 0.832058
516 1 0.364433 0.65889 0.5 -0.353041 -0.642536
517 1 0.898702 0.096076 0.5 0.785224 -0.218515
518 1 0.827237 0.393772 0.5 0.657046 0.581106
519 1 0.0372772 0.89669 0.5 0.812387 -0.356612
520 1 0.977571 0.124057 0.5 0.321155 -0.550644
521 1 0.141896 0.26798 0.5 -0.401248 -0.851553
522 1 0.885268 0.929176 0.5 0.0578411 -0.848426
523 1 0.145846 0.380121 0.5 -0.178767 0.613348
524 1 0.0137561 0.0281668 0.5 0.158277 -0.54305
525 1 0.097705 0.0650357 0.5 0.573445 0.199133
526 1 0.934836 0.266135 0.5 0.90664 0.26195
527 1 0.266858 0.146412 0.5 0.145867 -0.811966
528 1 0.867446 0.237178 0.5 0.437975 -0.185087
529 1 0.946955 0.217482 0.5 0.749836 -0.0682525
530 1 0.130965 0.144906 0.5 0.244533 0.113227
531 1 0.278199 0.341356 0.5 -0.516739 -0.179355
532 1 0.082539 0.217843 0.5 -0.195009 -0.414855
533 1 0.910059 0.448542 0.5 -0.0757496 0.636601
534 1 0.0534827 0.281415 0.5 0.478494 0.743527
535 1 0.032724 0.26193 0.5 0.0639025 0.525005
536 1 0.0082315 0.136647 0.5 0.160253 0.581482
537 1 0.910619 0.202487 0.5 0.711991 -0.512558
538 1 0.0175186 0.214509 0.5 0.0869149 0.176854
539 1 0.291114 0.377489 0.5 -0.515548 -0.682378
540 1 0.0197454 0.445758 0.5 0.582918 -0.150618
541 1 0.170224 0.356303 0.5 0.197006 -0.810174
542 1 0.208262 0.122004 0.5 0.00347409 -0.728478
543 1 0.0355679 0.61876 0.5 0.123158 0.40342
544 1 0.186924 0.0596397 0.5 0.505168 -0.422334
545 1 0.925494 0.147491 0.5 -0.0709127 -0.561526
546 1 0.168094 0.265902 0.5 -0.294588 -0.733372
547 1 0.0770931 0.284253 0.5 0.0205797 -0.406071
548 1 0.047542 0.262715 0.5 0.473799 0.147756
549 1 0.985487 0.102901 0.5 0.424968 -0.759908
550 1 0.103983 0.387055 0.5 0.617676 -0.0757614
551 1 0.376534 0.271563 0.5 0.389665 -0.554882
552 1 0.459346 0.21107 0.5 0.261517 -0.902228
553 1 0.117895 0.354167 0.5 0.848316 0.249501
554 1 0.010415 0.274132 0.5 0.0641423 0.730468
555 1 0.10386 0.371096 0.5 0.492041 0.548282
556 1 0.216596 0.212679 0.5 0.1851 -0.00326698
557 1 0.867543 0.0426878 0.5 0.0529949 -0.233265
558 1 0.79726 0.396819 0.5 -0.45335 0.0755194
559 1 0.373939 0.281715 0.5 0.25931 -0.924088
560 1 0.169378 0.2137 0.5 0.145649 0.0213724
561 1 0.91484 0.176045 0.5 0.739199 -0.488071
562 1 0.95395 0.209686 0.5 0.214717 0.640348
563 1 0.916381 0.0581985 0.5 0.0131378 -0.348631
564 1 0.411346 0.339536 0.5 0.520588 -0.689968
565 1 0.949254 0.173586 0.5 0.478576 -0.106597
566 1 0.898571 0.140115 0.5 0.531979 -0.367387
567 1 0.980442 0.297407 0.5 0.716365 0.451962
568 1 0.0219473 0.341747 0.5 0.243371 0.511815
569 1 0.918397 0.924836 0.5 0.540744 -0.204935
570 1 0.245989 0.279604 0.5 0.718586 0.521682
571 1 0.232533 0.203042 0.5 0.274987 -0.700923
572 1 0.940271 0.00752789 0.5 0.111812 -0.235315
573 1 0.0929154 0.275146 0.5 0.432267 0.519992
574 1 0.0386641 0.100952 0.5 -0.469659 -0.75684
575 1 0.048174 0.0730434 0.5 -0.839763 0.3285
576 1 0.182243 0.466804 0.5 -0.530555 -0.185631
577 1 0.313711 0.238195 0.5 0.752798 -0.395166
578 1 0.142475 0.0624266 0.5 -0.710138 0.19344
579 1 0.0375024 0.176987 0.5 0.634175 0.252313
580 1 0.130245 0.800673 0.5 -0.385902 0.0113346
581 1 0.153931 0.412613 0.5 -0.525272 0.492496
582 1 0.138659 0.457657 0.5 0.885221 0.0461232
583 1 0.197451 0.126632 0.5 0.11471 -0.464106
584 1 0.815752 0.0879948 0.5 -0.0397437 0.172623
585 1 0.0320457 0.0935403 0.5 -0.306918 -0.526718
586 1 0.0624631 0.369988 0.5 0.305544 0.413833
587 1 0.631328 0.0252677 0.5 0.198523 -0.851008
588 1 0.856331 0.96674 0.5 0.377153 -0.784227
589 1 0.320093 0.473123 0.5 -0.659295 0.251995
590 1 0.132443 0.364788 0.5 0.730724 0.528964
591 1 0.0621198 0.912041 0.5 -0.22247 -0.72521
592 1 0.329027 0.390419 0.5 -0.459378 -0.0252035
593 1 0.286162 0.397155 0.5 -0.372339 -0.772066
594 1 0.242866 0.199434 0.5 0.185733 -0.935219
595 1 0.155939 0.162385 0.5 -0.0971501 0.0686268
596 1 0.0945996 0.153007 0.5 -0.0593525 0.924103
597 1 0.225593 0.302012 0.5 0.360847 0.694792
598 1 0.472641 0.299106 0.5 0.741704 -0.541858
599 1 0.982126 0.169208 0.5 -0.761156 0.0706811
600 1 0.132774 0.0788318 0.5 -0.653759 0.301638
601 1 0.0685254 0.161196 0.5 0.0267377 0.386021
602 1 0.256998 0.416357 0.5 -0.137667 -0.520651
603 1 0.874983 0.217033 0.5 0.528469 -0.644817
604 1 0.334061 0.729797 0.5 -0.391693 -0.310568
605 1 0.238185 0.490815 0.5 -0.600421 0.561162
606 1 0.187361 0.182056 0.5 0.121947 -0.633438
607 1 0.345455 0.304787 0.5 0.558989 -0.69161
608 1 0.00471363 0.111667 0.5 0.137478 -0.154431
609 1 0.0176904 0.32264 0.5 0.0473004 0.838124
610 1 0.0567658 0.759426 0.5 -0.0569498 0.528664
611 1 0.963793 0.454908 0.5 0.259937 0.668212
612 1 0.924364 0.933525 0.5 0.585449 -0.181662
613 1 0.0482203 0.0301078 0.5 -0.425948 -0.864858
614 1 0.285968 0.301388 0.5 0.521278 0.192907
615 1 0.833165 0.203677 0.5 0.380309 0.0846364
616 1 0.177753 0.222906 0.5 -0.552914 -0.644243
617 1 0.0890312 0.228371 0.5 0.432763 0.199272
618 1 0.956834 0.247984 0.5 0.665695 0.234157
619 1 0.0731429 0.353188 0.5 0.23566 0.71758
620 1 0.357573 0.203923 0.5 -0.196859 -0.566254
621 1 0.19167 0.462357 0.5 -0.611888 -0.725342
622 1 0.220096 0.403308 0.5 -0.733217 -0.552833
623 1 0.827246 0.364787 0.5 0.466721 0.759341
624 1 0.919919 0.257067 0.5 0.737166 -0.20527
625 1 0.220775 0.445858 0.5 -0.603562 0.0749338
626 1 0.258048 0.233533 0.5 0.623265 -0.380925
627 1 0.282154 0.032725 0.5 0.18085 -0.104388
628 1 0.0453173 0.149783 0.5 0.714167 0.527499
629 1 0.190305 0.379711 0.5 0.572624 -0.520055
630 1 0.891522 0.967679 0.5 0.329658 -0.707209
631 1 0.186264 0.49411 0.5 -0.404015 0.0991181
632 1 0.0290249 0.157625 0.5 0.782311 0.0330571