# LAMMPS data file written by Ovito 3.7.11
9250 atoms
1 atom types
-58.36 58.36 xlo xhi
-58.36 58.36 ylo yhi
-0.5 0.5 zlo zhi

Atoms  # atomic

1 1 -25.50332 5.80005024 0.0
2 1 -45.6678672 8.24416704 0.0
3 1 57.4063976 -56.675216832 0.0
4 1 -18.77639624 -34.83835216 0.0
5 1 -31.07926784 0.099212 0.0
6 1 20.2170712 -27.60941568 0.0
7 1 -34.32408384 33.1420604 0.0
8 1 25.94090328 3.26629248 0.0
9 1 38.6483264 -26.0676612 0.0
10 1 6.6652956 -27.2868016 0.0
11 1 27.69987368 58.22098648 0.0
12 1 -18.1056064 -56.56093628 0.0
13 1 -19.91371592 20.56594728 0.0
14 1 -17.52095592 44.42608312 0.0
15 1 -35.821368 -25.33594352 0.0
16 1 -18.5952468 32.54842248 0.0
17 1 14.48039992 -31.240108 0.0
18 1 22.5917396 -10.26575744 0.0
19 1 28.99546568 -53.700782712 0.0
20 1 56.81310984 -9.59648496 0.0
21 1 -53.417865104 -19.0393664 0.0
22 1 49.46616944 -36.65895072 0.0
23 1 11.1245832 -34.0046212 0.0
24 1 -32.62288984 3.68928576 0.0
25 1 29.47273376 -31.52233696 0.0
26 1 -57.81766052 -19.62191592 0.0
27 1 -29.63474112 -13.74401344 0.0
28 1 45.11251344 -19.77855416 0.0
29 1 31.2202656 -0.27219104 0.0
30 1 -37.6398656 51.64416464 0.0
31 1 -2.63868904 41.43723408 0.0
32 1 -17.2558848 54.50252072 0.0
33 1 -46.0133584 6.83500648 0.0
34 1 -34.65603552 -40.7043492 0.0
35 1 6.45975168 -25.2091856 0.0
36 1 -18.35515376 -6.67533352 0.0
37 1 43.17087624 -4.3618264 0.0
38 1 39.05229432 41.04190344 0.0
39 1 -46.924101216 8.87165376 0.0
40 1 37.64126624 -17.22635464 0.0
41 1 -11.13964008 -22.8298484 0.0
42 1 -4.00653072 -45.8925532 0.0
43 1 -29.79943304 25.77434384 0.0
44 1 -17.881504 -36.9938204 0.0
45 1 -36.14456568 -41.15558872 0.0
46 1 -28.51037736 24.02179304 0.0
47 1 46.55774048 -21.52970432 0.0
48 1 56.92866264 7.56263896 0.0
49 1 -30.5678008 -49.448521376 0.0
50 1 46.80682096 42.94047096 0.0
51 1 57.21952888 -53.452227472 0.0
52 1 -4.40898128 -52.116752248 0.0
53 1 -33.86198936 41.3083752 0.0
54 1 53.29190088 -22.88634088 0.0
55 1 29.03328296 -28.22079504 0.0
56 1 12.93327632 1.70983128 0.0
57 1 -29.13704704 16.49638776 0.0
58 1 -11.55679736 -54.374665632 0.0
59 1 -41.32459928 -30.07477552 0.0
60 1 16.34220064 49.6573568 0.0
61 1 -17.71996352 -46.18750464 0.0
62 1 38.0162876 23.83760888 0.0
63 1 54.02116744 -50.48962876 0.0
64 1 -21.41450168 53.62513648 0.0
65 1 32.13616744 -9.94781216 0.0
66 1 24.39693112 -40.29652952 0.0
67 1 30.05061448 44.0262004 0.0
68 1 53.92767472 25.03620656 0.0
69 1 57.68559184 -26.54703024 0.0
70 1 -24.9570704 -38.95051448 0.0
71 1 -38.30330208 -46.6518168 0.0
72 1 -34.20001048 -3.71029536 0.0
73 1 54.12796624 -35.6451208 0.0
74 1 54.70701416 -9.90754376 0.0
75 1 57.97692496 36.37438736 0.0
76 1 40.38582032 -35.1548968 0.0
77 1 -30.2339816 40.30878512 0.0
78 1 30.44501136 50.1067288 0.0
79 1 -24.73436864 2.68771144 0.0
80 1 6.66494544 -1.07475776 0.0
81 1 -16.71710528 -31.86817832 0.0
82 1 -42.0676388 53.66155312 0.0
83 1 -36.55810464 -37.128632 0.0
84 1 -50.632272272 21.95141368 0.0
85 1 7.21411304 -31.90436152 0.0
86 1 -46.21435024 49.76018712 0.0
87 1 -9.00914992 38.08818712 0.0
88 1 4.3081352 -14.27649008 0.0
89 1 23.27326768 24.8940416 0.0
90 1 -16.09592144 -30.91480936 0.0
91 1 14.5281384 -53.660537656 0.0
92 1 -33.886734 -27.90798544 0.0
93 1 53.504448 -6.10492288 0.0
94 1 50.52330248 26.26970352 0.0
95 1 -50.235400928 -15.0212804 0.0
96 1 -3.44405704 -34.29023504 0.0
97 1 -43.26390208 -41.92197224 0.0
98 1 24.96897584 -22.0203952 0.0
99 1 55.18533272 40.41301608 0.0
100 1 7.19788896 15.43948816 0.0
101 1 40.22217888 -3.4875936 0.0
102 1 23.16098304 33.30920344 0.0
103 1 17.29872104 28.55263 0.0
104 1 -28.4458312 -8.21043496 0.0
105 1 31.3620804 -4.55208 0.0
106 1 34.8053204 -23.70209696 0.0
107 1 -15.22950888 -22.55403904 0.0
108 1 6.92861592 -44.73340688 0.0
109 1 16.09300344 -38.16837376 0.0
110 1 -0.97659624 -33.51311328 0.0
111 1 -39.06419976 36.54584904 0.0
112 1 56.94045136 -15.67036032 0.0
113 1 34.6150668 -29.80608608 0.0
114 1 26.3314484 -41.90458096 0.0
115 1 44.38359704 5.79211328 0.0
116 1 -28.59313184 7.28834696 0.0
117 1 16.47993024 -0.61231312 0.0
118 1 2.41878856 18.13151824 0.0
119 1 -6.88484592 33.87050992 0.0
120 1 25.73139088 -19.36758304 0.0
121 1 -49.314585176 48.89295752 0.0
122 1 12.89149056 57.90350808 0.0
123 1 -27.85266016 -20.0647516 0.0
124 1 27.60871536 10.99747512 0.0
125 1 20.67904896 3.2576552 0.0
126 1 -54.05694212 -48.859120392 0.0
127 1 -4.36742896 -38.272488 0.0
128 1 -28.57375632 26.34942328 0.0
129 1 -38.77158272 -0.3116424 0.0
130 1 -46.56801184 -47.360435592 0.0
131 1 -55.459939864 -34.84640584 0.0
132 1 -58.0053392768 48.34098864 0.0
133 1 32.66747688 -39.02498184 0.0
134 1 -29.94836776 -40.00006072 0.0
135 1 11.67340064 -17.35941544 0.0
136 1 -39.05311136 50.58201264 0.0
137 1 -30.91702704 25.88802912 0.0
138 1 17.67129128 -40.67015024 0.0
139 1 29.99867408 40.6763364 0.0
140 1 -57.4338594816 5.19660784 0.0
141 1 -52.395736392 -28.45014984 0.0
142 1 18.07771032 -0.37327056 0.0
143 1 7.22823616 9.67281984 0.0
144 1 47.19608216 12.82472672 0.0
145 1 -22.61228232 49.2517548 0.0
146 1 22.11388792 51.11705712 0.0
147 1 -37.20928552 8.35528448 0.0
148 1 49.9176424 -39.21196728 0.0
149 1 -40.0693924 0.3670844 0.0
150 1 -40.8846816 51.86254776 0.0
151 1 -7.68227696 -2.13212424 0.0
152 1 -31.57672848 -13.82349976 0.0
153 1 32.94048496 55.34080376 0.0
154 1 0.37210336 -51.951920264 0.0
155 1 -16.07222728 0.01552376 0.0
156 1 49.0609176 40.95272936 0.0
157 1 -15.64561568 -27.21746992 0.0
158 1 -15.6480668 13.338178 0.0
159 1 -51.746131232 13.76689056 0.0
160 1 14.84701744 56.34377872 0.0
161 1 24.37720544 24.9489 0.0
162 1 24.06462928 -8.9168244 0.0
163 1 -20.83895536 -44.74951424 0.0
164 1 15.90916944 -16.41806864 0.0
165 1 -25.18689208 -14.60003792 0.0
166 1 41.57951576 -26.8957896 0.0
167 1 -30.6080692 -14.42402416 0.0
168 1 -2.86734352 -39.08789392 0.0
169 1 46.59427384 56.49329704 0.0
170 1 52.1569156 -51.812054688 0.0
171 1 -33.43584464 -6.02648704 0.0
172 1 -37.57111752 28.1627852 0.0
173 1 37.37421088 39.12197616 0.0
174 1 -48.404764448 21.00306368 0.0
175 1 54.29604304 -46.04358888 0.0
176 1 -38.5928844 17.2208688 0.0
177 1 18.47841008 21.80761464 0.0
178 1 -32.03240336 40.38173512 0.0
179 1 51.49067784 -33.13890896 0.0
180 1 -33.19843616 -57.7172894904 0.0
181 1 -9.5430272 11.64830584 0.0
182 1 -53.775716952 19.85080384 0.0
183 1 16.22092856 16.56852072 0.0
184 1 30.002876 -48.054522744 0.0
185 1 -27.28131576 8.48577744 0.0
186 1 -21.7291788 -42.50802336 0.0
187 1 -51.588279104 51.2529192 0.0
188 1 -42.81044488 -8.95090664 0.0
189 1 24.5205376 9.59718528 0.0
190 1 16.56630304 -35.04996552 0.0
191 1 -29.46351288 30.71066608 0.0
192 1 -51.659244864 49.81131048 0.0
193 1 51.06348264 47.94297344 0.0
194 1 10.05099264 -45.14110984 0.0
195 1 56.85909752 -46.0542104 0.0
196 1 -39.19200816 -28.30191544 0.0
197 1 44.30259336 32.6489184 0.0
198 1 -47.710560576 -36.26116896 0.0
199 1 55.39682936 1.22859472 0.0
200 1 50.58773192 -45.68210704 0.0
201 1 -13.238966 -37.63332928 0.0
202 1 -52.455041824 -52.771259648 0.0
203 1 4.57472368 -15.58725568 0.0
204 1 -25.8027068 12.76438248 0.0
205 1 -34.05341016 39.29705616 0.0
206 1 3.00215512 -12.38445888 0.0
207 1 51.733222 -46.31344552 0.0
208 1 -6.53270168 -38.78535568 0.0
209 1 41.01879288 -5.37892448 0.0
210 1 -37.85684808 54.2502888 0.0
211 1 25.36955888 -10.97821632 0.0
212 1 44.90755312 27.92339248 0.0
213 1 54.92714808 30.94667392 0.0
214 1 -27.94521912 22.51773912 0.0
215 1 -50.6763224 -14.00826752 0.0
216 1 12.50386344 -50.454566072 0.0
217 1 -56.988761768 -4.9104104 0.0
218 1 51.59946088 -49.827452856 0.0
219 1 55.25676536 56.01264408 0.0
220 1 32.36248752 -43.23588928 0.0
221 1 -38.00193104 -52.44830708 0.0
222 1 37.16037984 -52.762960856 0.0
223 1 -10.53783176 -12.52860808 0.0
224 1 -23.729176 15.18632248 0.0
225 1 49.66459344 -51.539128312 0.0
226 1 24.388644 42.26758016 0.0
227 1 -25.19156088 41.3702368 0.0
228 1 1.27364864 27.6212044 0.0
229 1 -17.05641032 -50.293912664 0.0
230 1 -12.55055144 46.33527216 0.0
231 1 55.85297112 -33.23228496 0.0
232 1 7.86587752 18.51424312 0.0
233 1 46.05164256 -16.71465416 0.0
234 1 -48.68963128 1.76667392 0.0
235 1 44.39993784 -34.71287816 0.0
236 1 57.83907864 56.4936472 0.0
237 1 -32.71066328 -2.9436784 0.0
238 1 -39.69191992 13.67701616 0.0
239 1 -31.418106 -16.64648968 0.0
240 1 -52.518409112 -4.39555848 0.0
241 1 -37.78039648 1.20256616 0.0
242 1 -42.16054792 44.0623836 0.0
243 1 57.9724896 -16.53023656 0.0
244 1 -11.84579608 0.03291504 0.0
245 1 -58.0056859352 -27.51685672 0.0
246 1 -57.4751293392 7.65636512 0.0
247 1 3.51280512 -52.503363904 0.0
248 1 -12.18778568 31.93821032 0.0
249 1 36.6086444 30.5993152 0.0
250 1 -30.66923048 -27.8073728 0.0
251 1 29.33617136 -54.850684808 0.0
252 1 22.80440344 15.3801944 0.0
253 1 -13.79256896 -2.14951552 0.0
254 1 -57.92790256 -21.90239128 0.0
255 1 16.31091968 17.8739172 0.0
256 1 8.5736676 35.82521976 0.0
257 1 8.17751992 48.3856924 0.0
258 1 39.66740872 36.56907632 0.0
259 1 -17.22005176 9.88233224 0.0
260 1 15.40260464 -23.10600792 0.0
261 1 -57.4445977216 27.222022 0.0
262 1 41.94321528 -7.78977608 0.0
263 1 -9.82058736 -5.60302688 0.0
264 1 -41.9789316 -54.574957152 0.0
265 1 -9.70655192 -38.07791576 0.0
266 1 -28.27180168 13.00937776 0.0
267 1 18.3822328 -38.3273464 0.0
268 1 -52.32084884 16.30356632 0.0
269 1 14.3262128 4.82485464 0.0
270 1 0.15255304 18.11926264 0.0
271 1 -19.0031832 37.06186816 0.0
272 1 -51.032505152 -30.07792696 0.0
273 1 43.29891808 -2.9769436 0.0
274 1 20.3810628 -11.06400552 0.0
275 1 50.69744872 4.5824272 0.0
276 1 -20.09521552 2.0560228 0.0
277 1 19.12317136 1.87417304 0.0
278 1 37.59866344 56.99274192 0.0
279 1 -50.85963116 -48.614381896 0.0
280 1 -2.27942488 -7.34028736 0.0
281 1 -50.932336048 55.02402568 0.0
282 1 -16.50280736 -43.122204 0.0
283 1 17.61806696 -18.60668536 0.0
284 1 -19.00458384 -24.65231448 0.0
285 1 43.33078264 -30.29595992 0.0
286 1 49.78119672 22.9133032 0.0
287 1 27.70454248 -20.3337912 0.0
288 1 -26.0349796 37.703478 0.0
289 1 19.35579432 3.06063184 0.0
290 1 33.50774416 -45.33848336 0.0
291 1 -14.855538 2.32541256 0.0
292 1 -58.1265646688 23.4799788 0.0
293 1 -30.86998888 -54.611175368 0.0
294 1 56.848476 -43.85847376 0.0
295 1 40.55914952 29.80293464 0.0
296 1 53.13993144 -47.72861716 0.0
297 1 5.4613288 26.07092936 0.0
298 1 26.60025456 10.4178436 0.0
299 1 6.35972264 42.57840552 0.0
300 1 -29.55782264 19.62751848 0.0
301 1 -38.9167824 32.13033144 0.0
302 1 -30.02003384 -16.42215384 0.0
303 1 -48.684647336 3.02094704 0.0
304 1 24.00183392 28.7989092 0.0
305 1 29.1088008 8.01247784 0.0
306 1 -20.82704992 -18.25255688 0.0
307 1 -23.23965232 31.26963816 0.0
308 1 -51.449323944 28.7557228 0.0
309 1 -38.09180544 16.09487096 0.0
310 1 -10.215918 -14.04865264 0.0
311 1 54.54360616 -23.65891056 0.0
312 1 45.1525484 -17.63370744 0.0
313 1 -35.38763648 -35.25387536 0.0
314 1 -51.750998456 -49.569454968 0.0
315 1 27.315398 -33.82218784 0.0
316 1 7.51349984 25.7233372 0.0
317 1 -31.19703832 -6.74209736 0.0
318 1 -57.147535984 29.32578328 0.0
319 1 -55.798883072 -46.20081072 0.0
320 1 -23.44823096 -7.82117376 0.0
321 1 7.93672656 -3.1782856 0.0
322 1 -36.16545856 20.85739712 0.0
323 1 -29.33652152 45.3784016 0.0
324 1 -37.64500128 -2.81983848 0.0
325 1 -58.202994092 -11.25134112 0.0
326 1 -26.22324896 -52.163020056 0.0
327 1 38.60887504 11.27853688 0.0
328 1 -27.63275968 -16.33426368 0.0
329 1 -15.06364976 0.57216144 0.0
330 1 -56.25915672 -2.73451616 0.0
331 1 -31.94999904 0.81914096 0.0
332 1 -4.63471776 -35.65924392 0.0
333 1 -38.08795368 -24.9074644 0.0
334 1 -55.149161192 32.99651056 0.0
335 1 38.94526208 42.14794216 0.0
336 1 17.22005176 -55.491045744 0.0
337 1 7.85537272 -6.47819344 0.0
338 1 2.49524016 -21.8342268 0.0
339 1 45.77046408 2.41236896 0.0
340 1 48.23033808 50.4837344 0.0
341 1 43.7840064 54.53765344 0.0
342 1 -57.051498768 34.63059056 0.0
343 1 -56.89994952 -44.3997044 0.0
344 1 55.80289824 16.77289744 0.0
345 1 31.36359776 38.71964232 0.0
346 1 44.25812304 25.51300776 0.0
347 1 -9.022456 -15.35930152 0.0
348 1 -36.74333928 -44.7078452 0.0
349 1 -55.761556016 -35.96995256 0.0
350 1 56.64316552 24.19185408 0.0
351 1 8.0530964 55.60867616 0.0
352 1 32.92927984 46.6985048 0.0
353 1 -13.20243264 24.27846032 0.0
354 1 -28.46228872 42.8432432 0.0
355 1 45.43069216 6.35505384 0.0
356 1 37.63799808 46.45432656 0.0
357 1 50.55248248 -13.17558704 0.0
358 1 40.28812568 -15.43516952 0.0
359 1 -45.4927872 24.73401848 0.0
360 1 47.7233064 -38.33131488 0.0
361 1 -54.398219728 -3.05911448 0.0
362 1 -2.83314456 26.2946816 0.0
363 1 -26.98461352 -32.50605312 0.0
364 1 -36.28439624 -31.5068132 0.0
365 1 -20.82308144 -20.27379712 0.0
366 1 38.84768416 -20.69982512 0.0
367 1 -52.565984184 29.39639888 0.0
368 1 -18.67321576 -7.7216116 0.0
369 1 43.2144128 55.5365432 0.0
370 1 15.7758752 54.14722504 0.0
371 1 54.10100392 -19.04905416 0.0
372 1 11.42035168 54.24223512 0.0
373 1 32.39691992 -53.799481144 0.0
374 1 -26.19710368 8.56327952 0.0
375 1 40.12903632 53.85962696 0.0
376 1 3.8155768 -36.13172648 0.0
377 1 -12.4651124 -53.631661128 0.0
378 1 -19.76057928 -42.47417456 0.0
379 1 11.62951392 -16.17645824 0.0
380 1 -49.167144472 50.11419888 0.0
381 1 24.62523544 47.86943984 0.0
382 1 -48.808008704 -30.65102216 0.0
383 1 -46.954903624 38.5444456 0.0
384 1 30.86707088 -31.83141152 0.0
385 1 -20.71709968 -7.39106056 0.0
386 1 -49.763595344 42.19101184 0.0
387 1 -3.56334488 -29.7034892 0.0
388 1 -42.87055568 -16.22034496 0.0
389 1 -11.89166704 12.00185072 0.0
390 1 -52.021251944 -8.83838856 0.0
391 1 56.8449744 -7.26570328 0.0
392 1 16.772664 46.27434432 0.0
393 1 -28.6611796 0.08450528 0.0
394 1 -49.375991568 -19.83049456 0.0
395 1 39.28024848 52.98376008 0.0
396 1 -20.85459584 3.10860376 0.0
397 1 34.02142888 -50.511758872 0.0
398 1 -25.43784008 40.1972008 0.0
399 1 -54.543442752 55.31442504 0.0
400 1 -34.45329288 -10.85285904 0.0
401 1 35.71503608 40.90755872 0.0
402 1 -47.495387256 46.06483192 0.0
403 1 -38.1925348 -16.53723976 0.0
404 1 22.59780904 -48.21749888 0.0
405 1 14.84958528 -24.09497648 0.0
406 1 -53.815471784 13.87544016 0.0
407 1 -52.760661472 -22.50606712 0.0
408 1 -57.9081873848 -45.15044744 0.0
409 1 -38.421306 13.822566 0.0
410 1 56.97149888 28.38548696 0.0
411 1 39.93773224 1.37752944 0.0
412 1 -26.33133168 1.16498232 0.0
413 1 -50.620518568 44.29594032 0.0
414 1 -17.589704 28.4464148 0.0
415 1 14.55626792 52.46482296 0.0
416 1 -36.50418 5.96415856 0.0
417 1 23.68704008 -10.2853664 0.0
418 1 -40.56591928 19.6609004 0.0
419 1 -7.82385832 -42.94163816 0.0
420 1 -34.2024616 30.5030212 0.0
421 1 48.00495176 13.97558592 0.0
422 1 43.20285752 -9.16006888 0.0
423 1 -15.78673016 1.68181848 0.0
424 1 -9.302584 45.82964112 0.0
425 1 3.73258888 6.352486 0.0
426 1 -22.11505512 16.04293056 0.0
427 1 -54.453008096 -6.2135892 0.0
428 1 30.38933592 -21.72205888 0.0
429 1 -43.99095096 22.30157368 0.0
430 1 -37.96563112 14.8800492 0.0
431 1 46.61703424 -22.76343472 0.0
432 1 35.73219392 3.6807652 0.0
433 1 -5.30597448 -36.86857984 0.0
434 1 2.58243 10.15253904 0.0
435 1 51.66797552 -27.1619112 0.0
436 1 48.06447896 -14.26341744 0.0
437 1 27.6340436 -26.87513016 0.0
438 1 3.05187784 7.53742744 0.0
439 1 -19.52748944 -6.85508232 0.0
440 1 0.06734744 -27.78776384 0.0
441 1 21.29918232 -14.3005344 0.0
442 1 -25.35823704 57.4501676 0.0
443 1 -2.48426848 -23.59576504 0.0
444 1 -29.2640384 21.58246176 0.0
445 1 -15.5949592 -39.99492504 0.0
446 1 -32.62569112 -41.52932616 0.0
447 1 4.487884 33.07296216 0.0
448 1 18.5800732 37.02603512 0.0
449 1 -24.00475192 -29.6276212 0.0
450 1 -34.85037432 1.666178 0.0
451 1 57.642172 18.38013184 0.0
452 1 -32.47920752 12.86616232 0.0
453 1 53.17553104 -25.63089496 0.0
454 1 43.87633192 -19.55678616 0.0
455 1 56.71576536 46.25660288 0.0
456 1 55.45262152 -36.58565056 0.0
457 1 -17.08500672 -20.61123464 0.0
458 1 -8.01469552 49.26587792 0.0
459 1 -49.504908808 10.262606 0.0
460 1 -42.17653856 -57.7997241576 0.0
461 1 10.892894 -50.521073128 0.0
462 1 -25.12736488 42.8782592 0.0
463 1 -40.22392968 48.50579728 0.0
464 1 -8.37209216 26.23246984 0.0
465 1 2.60192224 14.3548092 0.0
466 1 -2.09652464 -54.11541884 0.0
467 1 -20.12824728 12.57097744 0.0
468 1 55.80920112 -15.72498528 0.0
469 1 18.36519168 -25.04274288 0.0
470 1 -9.39339216 4.21079072 0.0
471 1 48.43506496 -48.3807318 0.0
472 1 9.66686712 5.05059112 0.0
473 1 -37.46525248 -20.77627672 0.0
474 1 -0.99141968 57.40908216 0.0
475 1 51.9234756 -2.00163128 0.0
476 1 -24.0338152 -57.3503241448 0.0
477 1 -22.21776872 -38.4580728 0.0
478 1 -16.65932888 52.34763608 0.0
479 1 53.15090312 -51.32248432 0.0
480 1 -21.54137632 24.99652176 0.0
481 1 -33.88545008 -48.851918768 0.0
482 1 20.2380808 5.48957504 0.0
483 1 -48.467594824 -55.648174208 0.0
484 1 -20.97726856 22.99664128 0.0
485 1 43.94239544 -43.61873088 0.0
486 1 -25.80352384 -35.42650424 0.0
487 1 -35.52536608 -10.21054888 0.0
488 1 21.50776096 -45.28012336 0.0
489 1 -13.54640648 -14.96852296 0.0
490 1 37.4151796 4.49500392 0.0
491 1 44.29442296 55.62384976 0.0
492 1 11.10555784 -4.30276608 0.0
493 1 -17.8663304 17.23032312 0.0
494 1 -37.1268812 44.59065832 0.0
495 1 -53.667354104 -23.3947732 0.0
496 1 -24.67880992 20.19734552 0.0
497 1 55.47223048 47.92779984 0.0
498 1 39.41891184 -16.30765152 0.0
499 1 23.00189368 -28.73786464 0.0
500 1 21.76676264 -12.99478776 0.0
501 1 24.079336 -4.19515024 0.0
502 1 -31.37036752 6.0326732 0.0
503 1 13.91629216 -0.23822552 0.0
504 1 -43.16060488 24.25780088 0.0
505 1 25.60346576 -14.3262128 0.0
506 1 -31.93412512 19.03154616 0.0
507 1 -22.91295304 -43.262268 0.0
508 1 29.48067072 -29.35823144 0.0
509 1 -14.4546048 -27.79430016 0.0
510 1 -27.38122808 15.21060024 0.0
511 1 -0.38961136 35.81016288 0.0
512 1 27.7671044 9.78627168 0.0
513 1 36.95425232 24.37300352 0.0
514 1 -21.94406032 31.15805384 0.0
515 1 42.18575944 56.54535416 0.0
516 1 45.49138656 44.8560796 0.0
517 1 7.28671288 -35.11801328 0.0
518 1 38.03601328 -52.052789688 0.0
519 1 6.03582464 45.21546048 0.0
520 1 -55.051174752 -54.768385536 0.0
521 1 -26.35560944 18.81071192 0.0
522 1 -39.15652528 24.77136888 0.0
523 1 -5.63652552 20.927896 0.0
524 1 -31.90447824 30.74661584 0.0
525 1 -48.937626264 -1.38873456 0.0
526 1 1.53766928 9.59998656 0.0
527 1 -28.19033112 -1.78569928 0.0
528 1 40.46985872 41.09431072 0.0
529 1 -23.65027328 55.55731936 0.0
530 1 50.54396192 53.44363688 0.0
531 1 -14.05215424 15.40785704 0.0
532 1 16.17073896 -2.91648264 0.0
533 1 30.56208152 55.46102536 0.0
534 1 -11.19624928 -48.18178256 0.0
535 1 54.63709888 -22.42763128 0.0
536 1 48.67422424 -38.96498776 0.0
537 1 -49.375454656 -21.10694448 0.0
538 1 53.80838688 41.29775368 0.0
539 1 -23.83982656 49.95510952 0.0
540 1 19.54791544 -6.64521976 0.0
541 1 -29.89619392 -47.07235896 0.0
542 1 -11.9801408 -23.7023304 0.0
543 1 -31.6480444 -19.99390256 0.0
544 1 50.19928776 38.00823392 0.0
545 1 -11.46342136 -15.73829136 0.0
546 1 -35.63531632 52.99694944 0.0
547 1 28.6127408 -36.92939096 0.0
548 1 17.7536956 43.4215908 0.0
549 1 40.7913056 44.9465376 0.0
550 1 -28.905708 40.2730688 0.0
551 1 42.50895712 -34.35139632 0.0
552 1 -52.995175296 39.264608 0.0
553 1 31.15630304 6.70918232 0.0
554 1 -2.11508312 20.78339664 0.0
555 1 45.73229664 27.14883856 0.0
556 1 51.99922688 30.7971556 0.0
557 1 -57.467319604 1.68450304 0.0
558 1 49.63529672 12.72119608 0.0
559 1 -11.7700448 16.70800112 0.0
560 1 -22.65791984 21.876246 0.0
561 1 -19.92457088 18.69399192 0.0
562 1 17.91383544 27.36873904 0.0
563 1 37.57835416 40.36504416 0.0
564 1 14.43569616 51.08554272 0.0
565 1 48.21026224 57.1070108 0.0
566 1 -28.61484176 35.52454904 0.0
567 1 -23.9065904 17.7245156 0.0
568 1 -43.918818 15.95352304 0.0
569 1 56.49983336 26.1464472 0.0
570 1 57.35188936 -5.85864368 0.0
571 1 -27.756016 -12.26878936 0.0
572 1 52.59181432 -56.661047024 0.0
573 1 12.35037664 51.31571456 0.0
574 1 -47.701257992 -47.395953488 0.0
575 1 47.2552592 -45.53387264 0.0
576 1 5.02432912 50.64200672 0.0
577 1 33.77514968 20.50571976 0.0
578 1 36.6308212 -12.5637408 0.0
579 1 35.78658544 -40.16697032 0.0
580 1 -25.1251472 4.56456904 0.0
581 1 -12.84830416 22.05109256 0.0
582 1 24.22360192 -18.50023672 0.0
583 1 -48.405231328 -43.93084016 0.0
584 1 -39.41529352 -42.26127728 0.0
585 1 -35.97275384 7.58014696 0.0
586 1 24.71032432 -5.98878648 0.0
587 1 57.56700432 48.25940136 0.0
588 1 28.14270936 40.21575928 0.0
589 1 30.75898816 -32.95857656 0.0
590 1 -16.02553928 -19.72439608 0.0
591 1 16.3256264 48.40938656 0.0
592 1 -51.419642048 18.70227904 0.0
593 1 -28.91224432 -11.31623744 0.0
594 1 47.24522128 -16.62361256 0.0
595 1 15.09061208 39.73977512 0.0
596 1 -25.06667048 -18.5748208 0.0
597 1 -7.31110736 5.96649296 0.0
598 1 -15.36186936 32.58145424 0.0
599 1 -22.50314912 19.60685904 0.0
600 1 -42.40530976 -11.00167704 0.0
601 1 -23.9702028 -50.638119944 0.0
602 1 -15.631726 -15.53788312 0.0
603 1 -21.2436236 -32.9564756 0.0
604 1 52.08209808 2.22269896 0.0
605 1 -54.304645304 -25.45243008 0.0
606 1 42.01289712 47.0509992 0.0
607 1 -6.80804416 12.5409804 0.0
608 1 -23.54394136 -55.31226572 0.0
609 1 -49.724750928 3.72558568 0.0
610 1 -31.8657272 2.86512584 0.0
611 1 -36.4785016 22.45494376 0.0
612 1 -13.049296 -23.29999656 0.0
613 1 49.30287816 46.32173264 0.0
614 1 -23.04788136 -6.7487504 0.0
615 1 7.7834732 19.6194648 0.0
616 1 12.59490504 7.30422088 0.0
617 1 -49.58370648 -13.23009528 0.0
618 1 -23.57067024 -33.89058576 0.0
619 1 55.5056124 54.5846916 0.0
620 1 -21.15363248 9.4473168 0.0
621 1 -51.852486496 7.71484184 0.0
622 1 -27.91732304 14.22501656 0.0
623 1 -23.7548544 48.76725008 0.0
624 1 -20.21438664 -52.070577816 0.0
625 1 28.78910472 51.683616 0.0
626 1 24.14084744 19.10729744 0.0
627 1 -30.47080648 1.12027856 0.0
628 1 -40.2007024 3.03226888 0.0
629 1 -57.06143164 49.00524216 0.0
630 1 -47.201848128 -46.31542976 0.0
631 1 33.57310736 -23.78648552 0.0
632 1 -8.745246 22.91750512 0.0
633 1 -15.56064352 -31.91334896 0.0
634 1 -20.87934048 -40.6080552 0.0
635 1 35.7624244 17.8534912 0.0
636 1 10.24579832 -14.67532232 0.0
637 1 -4.83127424 16.79087232 0.0
638 1 -5.74063976 27.61688576 0.0
639 1 -40.46717416 -41.17508096 0.0
640 1 14.89954144 -26.26561832 0.0
641 1 24.76705024 -16.30064832 0.0
642 1 -47.35814788 -25.08791352 0.0
643 1 -32.5012676 1.9212112 0.0
644 1 -9.22531536 34.0583124 0.0
645 1 31.21921512 -16.40709696 0.0
646 1 50.54687992 -56.881321008 0.0
647 1 49.37944648 10.41632624 0.0
648 1 53.31431112 23.9847928 0.0
649 1 -23.50834176 38.5461964 0.0
650 1 47.5406396 19.264636 0.0
651 1 23.40901304 -40.7241916 0.0
652 1 -34.79796704 -12.486122 0.0
653 1 -23.195182 -18.37207816 0.0
654 1 46.48058856 44.29710752 0.0
655 1 25.69287328 47.07352616 0.0
656 1 -9.11489824 13.87380608 0.0
657 1 -58.1288091944 -17.48150456 0.0
658 1 45.74326832 53.19735768 0.0
659 1 -16.80499544 17.6048776 0.0
660 1 23.68552272 18.06673864 0.0
661 1 -13.21854 -45.81691864 0.0
662 1 -44.8064736 19.07123096 0.0
663 1 41.48625648 51.68980216 0.0
664 1 -46.50638368 -45.26903496 0.0
665 1 38.9482968 -41.49734488 0.0
666 1 35.1642344 -41.55267016 0.0
667 1 -30.67389928 30.85294776 0.0
668 1 42.57397016 7.05187224 0.0
669 1 47.51274352 9.34542024 0.0
670 1 -5.82934696 23.98199152 0.0
671 1 -18.20061648 33.60112016 0.0
672 1 49.44772768 -1.73049072 0.0
673 1 -43.41026896 -21.40621456 0.0
674 1 -37.01109496 7.02047456 0.0
675 1 45.47376184 -21.9381076 0.0
676 1 -52.102605784 53.0416532 0.0
677 1 -10.95860736 44.51338968 0.0
678 1 -39.94076696 -0.82859528 0.0
679 1 -42.5957968 2.9302556 0.0
680 1 -37.61687176 38.64517496 0.0
681 1 -33.9911984 21.82337184 0.0
682 1 33.24197272 9.75592448 0.0
683 1 16.43230848 -23.73069336 0.0
684 1 37.46548592 -34.48819216 0.0
685 1 27.93261336 5.77787344 0.0
686 1 -44.2829844 3.90930296 0.0
687 1 12.24486176 10.72703488 0.0
688 1 56.56928176 53.44211952 0.0
689 1 31.73114904 24.15205256 0.0
690 1 50.32452832 -19.52212032 0.0
691 1 -38.44616736 30.79680544 0.0
692 1 47.6281796 37.23029512 0.0
693 1 -13.92516288 25.67361448 0.0
694 1 49.85706472 -24.45319016 0.0
695 1 -10.71594648 12.06207824 0.0
696 1 -48.254452432 56.90648584 0.0
697 1 -14.77873624 -4.16935512 0.0
698 1 -11.21830936 27.51884096 0.0
699 1 14.14167848 15.8634152 0.0
700 1 52.90170592 -26.84478296 0.0
701 1 -13.94488856 35.10354 0.0
702 1 -45.94064184 -27.05896416 0.0
703 1 -34.64097864 -28.9424748 0.0
704 1 -23.68902432 23.33419552 0.0
705 1 1.57420264 -49.355063672 0.0
706 1 39.5978436 -46.37320616 0.0
707 1 40.13253792 -9.84860016 0.0
708 1 6.16234912 35.93038448 0.0
709 1 -5.93836344 4.09780576 0.0
710 1 12.1318768 -9.56963936 0.0
711 1 -13.43365496 37.30207792 0.0
712 1 11.3784492 -2.91718296 0.0
713 1 30.26794712 -28.17340672 0.0
714 1 -2.07213016 29.54895192 0.0
715 1 -12.61836576 -47.964426576 0.0
716 1 27.84133832 -36.08001952 0.0
717 1 -37.27021336 24.1038472 0.0
718 1 27.62248832 -43.39404488 0.0
719 1 -52.656407168 57.869776 0.0
720 1 -34.20164456 -26.55111544 0.0
721 1 -14.5993376 -26.12870576 0.0
722 1 -28.66199664 31.56318896 0.0
723 1 -13.60336584 18.24368616 0.0
724 1 3.88665928 21.40609784 0.0
725 1 -21.37411656 -5.48187152 0.0
726 1 -34.36306832 -16.48588296 0.0
727 1 22.60142736 -23.0282724 0.0
728 1 -40.72909384 22.99605768 0.0
729 1 -47.580371088 -0.8765672 0.0
730 1 -5.0679824 -6.68490456 0.0
731 1 -19.59775488 14.4872864 0.0
732 1 -47.095131032 -4.93235376 0.0
733 1 -54.781224736 3.74986344 0.0
734 1 -29.30885888 -50.595750584 0.0
735 1 -30.2754172 54.17768896 0.0
736 1 54.86236848 -18.22291 0.0
737 1 22.53559728 49.05087968 0.0
738 1 23.53261952 39.23869616 0.0
739 1 39.70767712 13.39046856 0.0
740 1 43.7081384 48.64586128 0.0
741 1 -53.583619176 -32.29537352 0.0
742 1 3.4496596 39.0755216 0.0
743 1 -16.65687776 16.39017256 0.0
744 1 -8.03103632 14.41223544 0.0
745 1 28.96908696 17.42057672 0.0
746 1 44.25929024 -36.14456568 0.0
747 1 -45.16912264 -31.15350176 0.0
748 1 49.51519184 -26.7440536 0.0
749 1 32.3045944 28.52006512 0.0
750 1 -38.00613296 33.227266 0.0
751 1 41.36101592 3.96707936 0.0
752 1 48.41288816 12.62315128 0.0
753 1 -29.23380792 52.81381576 0.0
754 1 -14.41737112 24.59874 0.0
755 1 -33.31492272 -9.23126808 0.0
756 1 -41.21278152 31.86701112 0.0
757 1 -7.10754768 -21.1018088 0.0
758 1 -38.2293016 40.97595664 0.0
759 1 -26.00661664 -21.58071096 0.0
760 1 16.6396032 43.8032652 0.0
761 1 -39.83175048 -3.48327496 0.0
762 1 -37.38273144 -48.211861304 0.0
763 1 13.58048872 -19.5441804 0.0
764 1 6.56094792 -3.13089728 0.0
765 1 43.90224376 -14.34687224 0.0
766 1 17.30280624 -42.59007752 0.0
767 1 -27.81647696 51.35318168 0.0
768 1 -44.20746656 27.15794272 0.0
769 1 -53.988497512 39.84155496 0.0
770 1 -11.39268904 -34.3804596 0.0
771 1 26.43813048 -43.06080928 0.0
772 1 -40.22217888 -24.80906944 0.0
773 1 18.88798056 26.79447664 0.0
774 1 -36.79598 27.31049576 0.0
775 1 -45.54250992 -39.91683936 0.0
776 1 36.247396 43.07294816 0.0
777 1 49.51355776 -21.04496616 0.0
778 1 8.517642 33.51754864 0.0
779 1 -56.886480032 -39.47155256 0.0
780 1 26.72806296 -14.87818168 0.0
781 1 23.30770008 9.247142 0.0
782 1 -29.4064368 9.01300168 0.0
783 1 -51.7714478 -21.36291144 0.0
784 1 -25.22307528 1.38418248 0.0
785 1 20.28033344 -52.961081384 0.0
786 1 -39.1327144 -34.36481912 0.0
787 1 -12.70835688 27.5552576 0.0
788 1 17.73245256 53.8995452 0.0
789 1 51.66914272 -44.56287896 0.0
790 1 36.85760816 -39.80782288 0.0
791 1 -33.92536832 -52.225698696 0.0
792 1 -49.360269384 0.69471744 0.0
793 1 27.87787168 8.2556056 0.0
794 1 -48.595566632 -34.0203784 0.0
795 1 24.66305272 16.84654776 0.0
796 1 -20.89288 18.06440424 0.0
797 1 50.72464448 39.26204016 0.0
798 1 -39.55068872 30.95612824 0.0
799 1 4.1949168 26.448752 0.0
800 1 49.13526824 13.99426112 0.0
801 1 23.53110216 -21.83294288 0.0
802 1 56.34109416 -1.90090192 0.0
803 1 -17.0387856 -2.64172376 0.0
804 1 50.04475048 -7.1269232 0.0
805 1 9.38288736 -23.031774 0.0
806 1 -9.314256 -11.99099576 0.0
807 1 -13.7303572 -58.001949728 0.0
808 1 -13.47042176 -5.98283376 0.0
809 1 33.61897832 6.24090168 0.0
810 1 53.551136 32.52881352 0.0
811 1 48.86319392 47.51519464 0.0
812 1 -33.77129792 -13.16823368 0.0
813 1 -58.2017883744 4.30299952 0.0
814 1 -42.3232556 30.78758456 0.0
815 1 56.9552748 16.16058432 0.0
816 1 22.48283984 -51.906166024 0.0
817 1 -7.83179528 30.62826176 0.0
818 1 52.2952288 48.1312428 0.0
819 1 -51.605285208 -33.84308072 0.0
820 1 24.35923056 -55.516303952 0.0
821 1 32.90943744 5.1409324 0.0
822 1 13.62682656 36.1260072 0.0
823 1 -24.86474488 6.67241552 0.0
824 1 34.05504424 56.97371656 0.0
825 1 57.32947912 -17.43516672 0.0
826 1 14.32831376 -25.07857592 0.0
827 1 -26.95986888 -34.92810984 0.0
828 1 -16.88669944 -53.5858602 0.0
829 1 7.3877924 43.13784448 0.0
830 1 0.46723016 -38.1125816 0.0
831 1 -30.39820664 16.07421152 0.0
832 1 21.4408804 5.47218376 0.0
833 1 55.72632992 6.82216728 0.0
834 1 -47.666557136 -14.7714996 0.0
835 1 -46.28683336 30.6238264 0.0
836 1 33.63940432 21.63883752 0.0
837 1 -1.39573776 -28.79704168 0.0
838 1 19.27152248 7.5296072 0.0
839 1 43.67965872 41.98406728 0.0
840 1 -48.785761872 -11.05641872 0.0
841 1 -1.80600856 25.91370752 0.0
842 1 3.6638408 -40.26594888 0.0
843 1 19.76559824 -2.09430696 0.0
844 1 -19.36011296 30.15834704 0.0
845 1 -48.737895 -2.9337572 0.0
846 1 32.85597968 52.48408176 0.0
847 1 38.45293712 16.32691032 0.0
848 1 -43.33673536 31.25434784 0.0
849 1 56.3098132 57.85763712 0.0
850 1 -57.9678313048 -14.43674664 0.0
851 1 -10.76170072 50.9926336 0.0
852 1 43.1064468 -49.354048208 0.0
853 1 -21.0498684 39.935748 0.0
854 1 -23.45850232 37.4280188 0.0
855 1 -21.67011848 -9.56321976 0.0
856 1 -5.72266488 -43.76439744 0.0
857 1 45.93620648 1.3311916 0.0
858 1 58.11103624 -18.65955952 0.0
859 1 -4.35108816 -9.02315632 0.0
860 1 -26.77976992 51.86873392 0.0
861 1 54.78381592 -7.3848744 0.0
862 1 -0.62655296 7.254148 0.0
863 1 -8.65630536 48.05700888 0.0
864 1 36.41687344 14.50117608 0.0
865 1 -35.10318984 52.01615128 0.0
866 1 21.43924632 13.03622336 0.0
867 1 -55.034343728 1.45538168 0.0
868 1 -25.05324768 10.69598736 0.0
869 1 18.62069176 57.5330388 0.0
870 1 -16.01129944 20.18812464 0.0
871 1 56.5572596 -44.97431696 0.0