ITEM: TIMESTEP
0
ITEM: NUMBER OF ATOMS
9322
ITEM: BOX BOUNDS pp pp pp
-5.8359999999999999e+01 5.8359999999999999e+01
-5.8359999999999999e+01 5.8359999999999999e+01
-5.0000000000000000e-01 5.0000000000000000e-01
ITEM: ATOMS id type xs ys zs c_002[1] c_002[2]
1 1 0.415034 0.405363 0.5 0.486875 -0.398888
2 1 0.955406 0.355857 0.5 -0.608622 -0.0732883
3 1 0.696973 0.175967 0.5 0.116797 -0.666882
4 1 0.726601 0.139421 0.5 -0.755012 0.379586
5 1 0.0181437 0.292272 0.5 -0.0524188 0.935788
6 1 0.67953 0.353597 0.5 0.0614496 0.386836
7 1 0.857453 0.143131 0.5 0.68707 -0.534603
8 1 0.253507 0.35395 0.5 0.41956 0.374806
9 1 0.598142 0.992412 0.5 0.893659 -0.19095
10 1 0.798367 0.497903 0.5 0.104113 -0.153969
11 1 0.437545 0.268227 0.5 -0.749483 0.264026
12 1 0.834111 0.506991 0.5 -0.735522 0.579416
13 1 0.530817 0.117886 0.5 -0.552426 -0.222783
14 1 0.665363 0.168046 0.5 -0.280613 0.576958
15 1 0.169436 0.453354 0.5 -0.968198 0.0328525
16 1 0.727219 0.931954 0.5 -0.113924 0.119337
17 1 0.500516 0.091105 0.5 -0.0668812 -0.138687
18 1 0.0903577 0.226913 0.5 0.448666 -0.185279
19 1 0.401663 0.413125 0.5 0.159249 0.123434
20 1 0.858738 0.242583 0.5 0.06581 0.655499
21 1 0.565919 0.162711 0.5 0 0
22 1 0.547538 0.165918 0.5 0.0452171 0.75245
23 1 0.752052 0.132309 0.5 -0.415586 0.0957744
24 1 0.823395 0.118263 0.5 -0.262194 -0.634183
25 1 0.654174 0.0491435 0.5 0.483243 -0.684372
26 1 0.408505 0.182103 0.5 -0.00305902 -0.692063
27 1 0.0708101 0.321722 0.5 -0.133233 0.0798778
28 1 0.899212 0.255221 0.5 -0.347518 0.210851
29 1 0.387732 0.954701 0.5 0.299286 -0.500654
30 1 0.685481 0.784232 0.5 0.0618391 0.819047
31 1 0.621595 0.300574 0.5 -0.0896411 0.954814
32 1 0.298761 0.140507 0.5 0.510309 -0.222254
33 1 0.469643 0.153764 0.5 -0.263389 -0.711074
34 1 0.875017 0.209155 0.5 0.277902 0.375887
35 1 0.866914 0.00799678 0.5 0.416421 -0.175287
36 1 0.909147 0.135099 0.5 -0.229752 -0.569839
37 1 0.652917 0.570287 0.5 -0.449669 -0.302566
38 1 0.717052 0.600569 0.5 0.609924 -0.427573
39 1 0.808401 0.441035 0.5 0.251926 -0.0560711
40 1 0.18427 0.399468 0.5 0.85914 0.0234911
41 1 0.391824 0.299859 0.5 -0.596087 0.755291
42 1 0.213218 0.391226 0.5 0.878929 0.286395
43 1 0.916574 0.243532 0.5 0.0229024 0.397901
44 1 0.929747 0.39492 0.5 0.0570123 -0.383011
45 1 0.886355 0.239986 0.5 -0.284293 0.348936
46 1 0.721169 0.99907 0.5 -0.579432 0.0480701
47 1 0.739842 0.962404 0.5 -0.53328 0.240532
48 1 0.603245 0.982745 0.5 0.422419 0.0670977
49 1 0.920285 0.0974586 0.5 0.0520605 0.0829311
50 1 0.551012 0.224871 0.5 0.437061 0.0625566
51 1 0.967924 0.522657 0.5 0.733206 0.0047373
52 1 0.160786 0.689505 0.5 -0.12488 0.370066
53 1 0.698825 0.866576 0.5 0.964695 0.151807
54 1 0.606386 0.847957 0.5 -0.0522314 0.653769
55 1 0.685347 0.0436693 0.5 0.106526 -0.354941
56 1 0.579957 0.820682 0.5 0 0
57 1 0.552228 0.186644 0.5 0.00347511 -0.278048
58 1 0.700385 0.0699746 0.5 0.0983297 0.0536096
59 1 0.996944 0.788809 0.5 -0.166342 -0.969395
60 1 0.545916 0.194383 0.5 0.464476 -0.511913
61 1 0.458448 0.897526 0.5 0.0684148 -0.729612
62 1 0.429602 0.127227 0.5 -0.118484 0.437194
63 1 0.1827 0.772711 0.5 -0.184765 -0.316513
64 1 0.0946831 0.302519 0.5 0 0
65 1 0.346471 0.938664 0.5 -0.00158341 -0.404203
66 1 0.842278 0.169671 0.5 0.139526 0.542788
67 1 0.38521 0.203367 0.5 -0.380859 0.0368249
68 1 0.593807 0.113 0.5 0.526725 0.0886995
69 1 0.119802 0.251957 0.5 -0.0974356 -0.219286
70 1 0.754708 0.392227 0.5 -0.178272 0.470344
71 1 0.587442 0.101578 0.5 0.654595 -0.609983
72 1 0.107105 0.328086 0.5 -0.238505 0.381418
73 1 0.822638 0.805775 0.5 -0.404469 -0.111288
74 1 0.477981 0.267014 0.5 -0.478472 -0.553443
75 1 0.859804 0.380456 0.5 -0.185078 0.145647
76 1 0.961466 0.665015 0.5 -0.0769751 0.554073
77 1 0.583632 0.932849 0.5 0.142661 -0.187199
78 1 0.0874981 0.00157523 0.5 0.148367 -0.771272
79 1 0.611092 0.942626 0.5 -0.118822 0.449785
80 1 0.77771 0.228904 0.5 0 0
81 1 0.634099 0.869805 0.5 0.234549 0.0148241
82 1 0.626798 0.632263 0.5 -0.755549 -0.215945
83 1 0.890608 0.196683 0.5 -0.877096 -0.324266
84 1 0.851689 0.173038 0.5 0.492575 -0.0135028
85 1 0.577638 0.0781873 0.5 -0.863592 -0.204601
86 1 0.958925 0.260885 0.5 0.160681 0.315452
87 1 0.139627 0.992348 0.5 0.111745 -0.529568
88 1 0.622441 0.808444 0.5 -0.0163653 -0.752931
89 1 0.965465 0.387453 0.5 -0.355455 -0.495463
90 1 0.962554 0.561983 0.5 0.0170245 0.234398
91 1 0.453731 0.0114927 0.5 0.340755 -0.221396
92 1 0.766722 0.915471 0.5 0.0823424 0.51464
93 1 0.538017 0.979365 0.5 -0.545246 0.520876
94 1 0.455123 0.288541 0.5 0.287943 0.171183
95 1 0.802702 0.35857 0.5 0.486793 -0.19497
96 1 0.579972 0.186336 0.5 -0.708909 0.243688
97 1 0.938484 0.0418666 0.5 -0.460874 -0.414642
98 1 0.402084 0.944376 0.5 0.352525 -0.633351
99 1 0.635663 0.339053 0.5 -0.711995 0.332558
100 1 0.493264 0.192043 0.5 0.570368 -0.258146
101 1 0.341251 0.657931 0.5 -0.266027 0.172248
102 1 0.234846 0.798422 0.5 0.4488 0.692446
103 1 0.877054 0.148456 0.5 -0.0433891 -0.48096
104 1 0.202571 0.530718 0.5 -0.0672125 -0.846033
105 1 0.809048 0.0729184 0.5 0.119984 0.798955
106 1 0.535577 0.154233 0.5 0.288248 0.759386
107 1 0.893689 0.0333715 0.5 -0.916962 0.253452
108 1 0.543102 0.143598 0.5 -0.0125099 0.740791
109 1 0.525064 0.0998311 0.5 0.116696 -0.602004
110 1 0.865649 0.234167 0.5 -0.0365345 0.317211
111 1 0.489341 0.874679 0.5 0.868541 0.197542
112 1 0.616362 0.130665 0.5 0.231266 -0.234194
113 1 0.667221 0.200525 0.5 0.587107 -0.308743
114 1 0.852701 0.00864438 0.5 0.0505753 -0.336392
115 1 0.928205 0.207917 0.5 -0.643081 -0.244318
116 1 0.830151 0.375548 0.5 0.10694 0.0827871
117 1 0.36457 0.310659 0.5 -0.71217 -0.0206769
118 1 0.555782 0.792153 0.5 0.625099 0.462985
119 1 0.880179 0.424037 0.5 -0.289012 0.214316
120 1 0.420325 0.169583 0.5 -0.366637 -0.788699
121 1 0.0141435 0.698615 0.5 0.616409 -0.58381
122 1 0.741403 0.481386 0.5 -0.203031 -0.333397
123 1 0.480208 0.934793 0.5 -0.626389 -0.0787003
124 1 0.365749 0.103515 0.5 0.674922 0.120206
125 1 0.538359 0.163494 0.5 0.0754702 0.955266
126 1 0.493185 0.231977 0.5 0.435734 -0.652313
127 1 0.919843 0.537947 0.5 0.443238 0.267252
128 1 0.707976 0.352142 0.5 0 0
129 1 0.471957 0.104848 0.5 0.145897 0.733197
130 1 0.598013 0.123588 0.5 0.258904 -0.130313
131 1 0.32478 0.177684 0.5 0.893501 -0.0168217
132 1 0.373967 0.401219 0.5 0.364357 0.00398522
133 1 0.662088 0.343198 0.5 -0.590884 -0.143966
134 1 0.701259 0.124784 0.5 0.874122 0.117268
135 1 0.89736 0.82526 0.5 0.501029 -0.424155
136 1 0.204667 0.315038 0.5 -0.569331 0.173624
137 1 0.995183 0.045169 0.5 -0.691789 0.419543
138 1 0.253495 0.960475 0.5 0.0244644 0.681663
139 1 0.390632 0.154495 0.5 -0.163101 0.541137
140 1 0.860077 0.102164 0.5 -0.198978 -0.716066
141 1 0.947225 0.336878 0.5 -0.125506 -0.25517
142 1 0.00166726 0.306676 0.5 -0.366712 -0.19179
143 1 0.873799 0.447684 0.5 0.425773 -0.39371
144 1 0.801143 0.449912 0.5 0.475515 -0.303099
145 1 0.420436 0.898271 0.5 -0.662956 0.18567
146 1 0.837674 0.89354 0.5 0.609111 0.294546
147 1 0.521448 0.0819003 0.5 0 0
148 1 0.532373 0.127391 0.5 -0.630222 0.373466
149 1 0.703053 0.192796 0.5 -0.779227 -0.502131
150 1 0.92967 0.954315 0.5 -0.68167 0.26493
151 1 0.415847 0.351689 0.5 -0.834373 0.0905246
152 1 0.447535 0.230835 0.5 -0.406361 0.129045
153 1 0.977483 0.248767 0.5 0.0780959 0.774077
154 1 0.973664 0.530548 0.5 0.0228003 -0.336834
155 1 0.698363 0.966441 0.5 -0.256559 0.521618
156 1 0.84904 0.416933 0.5 -0.526134 -0.524168
157 1 0.425126 0.0479536 0.5 0.448423 -0.0561002
158 1 0.692414 0.267127 0.5 0.519375 0.123605
159 1 0.802773 0.927154 0.5 -0.0658286 0.864128
160 1 0.0813614 0.170597 0.5 -0.0889925 -0.826864
161 1 0.0381805 0.215377 0.5 0.104314 -0.12303
162 1 0.517858 0.160525 0.5 0.264446 0.0229823
163 1 0.860948 0.861951 0.5 -0.960435 0.00413866
164 1 0.60275 0.445727 0.5 0.582335 -0.060889
165 1 0.544762 0.0220592 0.5 -0.211887 0.797178
166 1 0.313365 0.00188649 0.5 0.38144 -0.174878
167 1 0.561752 0.283822 0.5 -0.642344 -0.376204
168 1 0.805455 0.794777 0.5 -0.423212 0.200395
169 1 0.00128864 0.933692 0.5 0.0753788 -0.685789
170 1 0.440293 0.23824 0.5 0.254184 0.0983821
171 1 0.50478 0.0107272 0.5 0.48828 0.266144
172 1 0.857194 0.161684 0.5 0.703192 0.129214
173 1 0.580075 0.404599 0.5 0.471136 0.676066
174 1 0.831863 0.903074 0.5 0.642359 0.441061
175 1 0.997764 0.437644 0.5 0.0170511 0.24835
176 1 0.564723 0.629771 0.5 0.283434 0.0520518
177 1 0.933928 0.169427 0.5 0.653059 0.24161
178 1 0.179707 0.269696 0.5 -0.128653 0.287219
179 1 0.505453 0.555167 0.5 0 0
180 1 0.481521 0.306032 0.5 -0.774394 0.450758
181 1 0.82331 0.830467 0.5 0.156197 0.595875
182 1 0.18119 0.066043 0.5 -0.581668 -0.0531499
183 1 0.415379 0.285608 0.5 0.71272 0.32003
184 1 0.920753 0.252098 0.5 0.63572 -0.434399
185 1 0.743295 0.128727 0.5 -0.723325 -0.00734392
186 1 0.940512 0.180685 0.5 0.552231 0.39067
187 1 0.614378 0.686581 0.5 0.019857 0.441395
188 1 0.942484 0.423068 0.5 0.101204 0.230719
189 1 0.858151 0.451664 0.5 0.252071 0.144466
190 1 0.546823 0.984283 0.5 -0.171266 -0.0192453
191 1 0.904339 0.116698 0.5 0.0207797 -0.206686
192 1 0.823668 0.353403 0.5 -0.445102 0.190911
193 1 0.000722817 0.533077 0.5 -0.107034 -0.338787
194 1 0.257394 0.362759 0.5 0.227956 0.402582
195 1 0.0936329 0.425184 0.5 0.161322 -0.127994
196 1 0.583893 0.480073 0.5 -0.462335 0.553567
197 1 0.977757 0.44064 0.5 0 0
198 1 0.298428 0.45601 0.5 -0.0661786 0.230211
199 1 0.658766 0.119337 0.5 0.307735 0.161367
200 1 0.664275 0.0289828 0.5 0.492153 -0.640164
201 1 0.628077 0.184737 0.5 0.275949 0.659939
202 1 0.321079 0.651343 0.5 -0.888556 -0.316936
203 1 0.731169 0.257617 0.5 -0.216254 -0.869597
204 1 0.135479 0.381311 0.5 -0.139166 0.363473
205 1 0.104599 0.40261 0.5 -0.4684 0.659348
206 1 0.82309 0.795942 0.5 -0.624505 -0.310563
207 1 0.122046 0.740717 0.5 0.0903896 0.191693
208 1 0.563202 0.202385 0.5 0.824137 -0.0174849
209 1 0.256863 0.457448 0.5 -0.127036 -0.30518
210 1 0.481941 0.138172 0.5 -0.247089 -0.343928
211 1 0.648555 0.263003 0.5 0.0775972 -0.212977
212 1 0.932509 0.539692 0.5 0.252363 0.16752
213 1 0.95793 0.148567 0.5 -0.678837 -0.0986245
214 1 0.264994 0.382689 0.5 0.175241 0.283134
215 1 0.868428 0.579373 0.5 0.282608 0.882694
216 1 0.549675 0.345536 0.5 -0.312368 0.29652
217 1 0.230406 0.284156 0.5 -0.901912 0.126525
218 1 0.870611 0.0170265 0.5 0.883273 -0.15707
219 1 0.362584 0.224915 0.5 -0.914396 -0.0061887
220 1 0.590842 0.00282285 0.5 0.484685 -0.23475
221 1 0.0192267 0.243489 0.5 -0.271299 0.925492
222 1 0.720669 0.366216 0.5 -0.364918 -0.0493415
223 1 0.574802 0.156129 0.5 -0.758093 0.210388
224 1 0.744929 0.991461 0.5 0.425873 -0.416869
225 1 0.605886 0.065151 0.5 -0.74899 0.213665
226 1 0.804012 0.810032 0.5 0.550559 0.386076
227 1 0.843615 0.979153 0.5 0.0356905 0.826036
228 1 0.819609 0.898962 0.5 0.238602 0.359558
229 1 0.764116 0.395275 0.5 -0.280629 0.721618
230 1 0.607161 0.132387 0.5 -0.475973 -0.387041
231 1 0.586465 0.801599 0.5 -0.147426 -0.316537
232 1 0.327203 0.424136 0.5 -0.614081 -0.393423
233 1 0.0188884 0.571705 0.5 -0.352627 0.225705
234 1 0.641423 0.186713 0.5 0.321789 -0.2027
235 1 0.0596276 0.253316 0.5 -0.122504 -0.694108
236 1 0.264045 0.448627 0.5 0 0
237 1 0.3911 0.807297 0.5 0.309155 -0.632697
238 1 0.485139 0.0743941 0.5 0.272492 0.241802
239 1 0.658361 0.219725 0.5 0.613784 -0.0445567
240 1 0.655945 0.961014 0.5 0.143 0.862924
241 1 0.192118 0.726663 0.5 0.0855475 0.0695482
242 1 0.752115 0.880621 0.5 0.13367 0.157247
243 1 0.942258 0.844368 0.5 -0.12671 -0.285101
244 1 0.216648 0.265311 0.5 -0.331567 0.538622
245 1 0.345323 0.241837 0.5 0.352825 0.637278
246 1 0.950283 0.488497 0.5 -0.533844 0.642945
247 1 0.62088 0.606894 0.5 -0.683951 0.0906324
248 1 0.930696 0.804192 0.5 0.933684 0.121689
249 1 0.690448 0.169301 0.5 0.188903 -0.640612
250 1 0.439133 0.515365 0.5 -0.772955 -0.354109
251 1 0.628515 0.492985 0.5 -0.241768 -0.237192
252 1 0.727722 0.239327 0.5 0.531376 -0.119831
253 1 0.632144 0.274895 0.5 0.169731 0.920335
254 1 0.670559 0.223525 0.5 -0.175976 0.131704
255 1 0.712013 0.995482 0.5 -0.331508 0.0420158
256 1 0.918677 0.315344 0.5 -0.131075 0.409568
257 1 0.706891 0.518321 0.5 -0.585441 0.409069
258 1 0.723827 0.386426 0.5 -0.379931 -0.246717
259 1 0.735606 0.302039 0.5 -0.346092 -0.102176
260 1 0.716794 0.932916 0.5 -0.1576 -0.510612
261 1 0.802082 0.196584 0.5 -0.270982 -0.466732
262 1 0.800064 0.917932 0.5 0.170997 0.640569
263 1 0.354452 0.208866 0.5 -0.668166 -0.325161
264 1 0.349378 0.635309 0.5 0.352846 0.147625
265 1 0.44586 0.972114 0.5 -0.570054 0.273888
266 1 0.966199 0.574004 0.5 0.0992204 0.802156
267 1 0.283484 0.489969 0.5 -0.0282839 0.428948
268 1 0.688541 0.246629 0.5 0.221061 -0.542863
269 1 0.264319 0.494866 0.5 0.0805964 -0.847921
270 1 0.17072 0.231378 0.5 0.326255 -0.338273
271 1 0.694783 0.0616411 0.5 0.161804 0.199789
272 1 0.213346 0.506889 0.5 0.792903 0.0862146
273 1 0.640065 0.529051 0.5 -0.0800382 -0.580993
274 1 0.332326 0.286236 0.5 0.0435645 0.00694103
275 1 0.658148 0.175461 0.5 0.0749284 -0.105776
276 1 0.881488 0.200657 0.5 -0.363276 -0.19409
277 1 0.643574 0.889541 0.5 -0.245098 0.400507
278 1 0.961585 0.179952 0.5 0.16288 -0.687339
279 1 0.175381 0.628026 0.5 -0.15099 0.400591
280 1 0.587307 0.0518711 0.5 -0.70473 -0.152249
281 1 0.42956 0.0934232 0.5 -0.132493 -0.28704
282 1 0.654356 0.315809 0.5 -0.436156 0.398222
283 1 0.776769 0.407716 0.5 0.150747 0.517921
284 1 0.81959 0.025746 0.5 0.783203 0.10282
285 1 0.578847 0.0592296 0.5 -0.748608 0.107755
286 1 0.0358838 0.23854 0.5 0.164938 0.20729
287 1 0.634282 0.0294015 0.5 0.185124 0.276408
288 1 0.521308 0.850296 0.5 0.0251944 0.899727
289 1 0.794164 0.268649 0.5 -0.458254 0.22411
290 1 0.227141 0.195684 0.5 -0.361789 0.637143
291 1 0.640147 0.715306 0.5 -0.802362 0.251144
292 1 0.985194 0.292433 0.5 -0.145747 -0.256103
293 1 0.111023 0.685708 0.5 -0.386337 0.0688343
294 1 0.309696 0.657433 0.5 -0.559882 -0.211494
295 1 0.616341 0.019721 0.5 0.271252 -0.258017
296 1 0.675091 0.435667 0.5 0.624447 0.028571
297 1 0.540061 0.80754 0.5 0.0326392 0.847821
298 1 0.854251 0.461099 0.5 0.415678 -0.23206
299 1 0.255531 0.468051 0.5 0.36963 -0.662463
300 1 0.840526 0.548992 0.5 -0.900876 -0.187142
301 1 0.937903 0.648019 0.5 -0.774467 0.339747
302 1 0.149297 0.674063 0.5 0.783701 -0.169458
303 1 0.354018 0.785386 0.5 0.248488 0.81542
304 1 0.82282 0.785661 0.5 -0.400977 -0.100712
305 1 0.00502287 0.407816 0.5 -0.676127 0.0634918
306 1 0.665653 0.961459 0.5 0.365251 0.660936
307 1 0.819508 0.717031 0.5 0.210536 0.252486
308 1 0.227986 0.695563 0.5 -0.0272643 -0.242828
309 1 0.671827 0.213438 0.5 -0.470075 0.281483
310 1 0.872857 0.632968 0.5 -0.220589 -0.35866
311 1 0.389038 0.340849 0.5 -0.144694 -0.147709
312 1 0.743508 0.420792 0.5 0.338283 -0.595674
313 1 0.838808 0.580975 0.5 -0.700598 0.21867
314 1 0.0730695 0.456415 0.5 -0.265259 0.0898255
315 1 0.905419 0.400933 0.5 -0.0271245 0.282126
316 1 0.624848 0.174923 0.5 -0.400283 0.473329
317 1 0.0117945 0.169037 0.5 0.292691 -0.364104
318 1 0.708045 0.156435 0.5 0.0112031 0.551753
319 1 0.671645 0.654921 0.5 0.0332889 -0.32883
320 1 0.985488 0.463486 0.5 0.319142 0.269139
321 1 0.768501 0.935303 0.5 0.361647 -0.479262
322 1 0.658212 0.704674 0.5 -0.826246 -0.076509
323 1 0.55558 0.83021 0.5 0.126304 0.729925
324 1 0.921257 0.948406 0.5 -0.937084 -0.0967349
325 1 0.96655 0.0754822 0.5 -0.283957 -0.863362
326 1 0.87764 0.532181 0.5 -0.692209 -0.230888
327 1 0.829896 0.586716 0.5 0 0
328 1 0.828309 0.0967239 0.5 -0.468496 0.483473
329 1 0.858478 0.95901 0.5 -0.376149 0.409338
330 1 0.670872 0.311218 0.5 0.697742 0.479505
331 1 0.819158 0.102893 0.5 0.108912 0.610936
332 1 0.58019 0.175097 0.5 -0.4854 -0.229827
333 1 0.893315 0.0961514 0.5 0.839342 -0.0859361
334 1 0.00343093 0.558154 0.5 -0.15601 0.0904684
335 1 0.926227 0.52942 0.5 0.242898 -0.272016
336 1 0.382104 0.269975 0.5 0.457158 -0.117696
337 1 0.0158777 0.46553 0.5 -0.259331 0.122888
338 1 0.951276 0.309204 0.5 -0.802687 0.275901
339 1 0.0037217 0.502642 0.5 0.691522 0.395428
340 1 0.737231 0.112272 0.5 -0.197928 -0.308308
341 1 0.0810123 0.448202 0.5 -0.197442 0.0756182
342 1 0.727535 0.117035 0.5 0.121433 -0.154316
343 1 0.110185 0.260752 0.5 0.47633 0.156057
344 1 0.907871 0.424207 0.5 -0.230791 -0.00712253
345 1 0.439084 0.898652 0.5 0.301269 0.627521
346 1 0.982144 0.683071 0.5 0.632274 -0.0189823
347 1 0.0372891 0.401028 0.5 0.812088 -0.0510115
348 1 0.916861 0.717383 0.5 0.409538 -0.441599
349 1 0.541522 0.706936 0.5 -0.0148358 0.158335
350 1 0.0496003 0.308677 0.5 -0.220243 0.526722
351 1 0.123448 0.803885 0.5 0.497261 0.00312496
352 1 0.835181 0.51871 0.5 -0.607686 -0.108119
353 1 0.646119 0.553503 0.5 -0.614297 -0.556759
354 1 0.721991 0.276896 0.5 0.00349208 0.57218
355 1 0.800806 0.974618 0.5 0.164388 0.47693
356 1 0.297767 0.405453 0.5 -0.0605858 -0.643559
357 1 0.73997 0.599771 0.5 0.214945 -0.0709343
358 1 0.773809 0.290581 0.5 -0.575955 -0.729021
359 1 0.0947366 0.768249 0.5 0.824378 -0.151238
360 1 0.130948 0.355653 0.5 0.783674 -0.181176
361 1 0.782173 0.487076 0.5 0.649814 -0.280536
362 1 0.344261 0.704827 0.5 -0.490561 0.0681119
363 1 0.707177 0.233721 0.5 0.168865 -0.28213
364 1 0.111444 0.728878 0.5 0.38492 -0.300227
365 1 0.379233 0.689975 0.5 0.245083 -0.106392
366 1 0.862224 0.485764 0.5 0.420418 0.293236
367 1 0.713253 0.895067 0.5 -0.649966 -0.619067
368 1 0.836125 0.959725 0.5 0.537662 0.597015
369 1 0.623977 0.445733 0.5 0.309939 -0.449584
370 1 0.815719 0.0381867 0.5 0.725479 -0.381838
371 1 0.989806 0.645951 0.5 -0.252714 -0.274873
372 1 0.172878 0.472128 0.5 0.832692 0.169334
373 1 0.111823 0.739114 0.5 0.187569 0.158428
374 1 0.266749 0.925606 0.5 0.848775 0.00731431
375 1 0.510318 0.647018 0.5 0.531581 0.0589323
376 1 0.54433 0.337744 0.5 0.221773 0.0854431
377 1 0.872053 0.979986 0.5 -0.452773 -0.0954734
378 1 0.460937 0.167147 0.5 0.784634 0.129757
379 1 0.884905 0.904988 0.5 -0.23643 0.616385
380 1 0.963439 0.455463 0.5 0.0489573 0.902742
381 1 0.690424 0.0355972 0.5 0.112964 0.244901
382 1 0.756386 0.212127 0.5 0.922799 0.144277
383 1 0.6184 0.627187 0.5 -0.737745 -0.532286
384 1 0.854014 0.262086 0.5 0.195152 0.728873
385 1 0.122261 0.240625 0.5 0.01528 -0.496372
386 1 0.0983756 0.4648 0.5 -0.0971214 0.122311
387 1 0.907846 0.587235 0.5 -0.684579 0.664049
388 1 0.0206163 0.736392 0.5 0.336147 0.424735
389 1 0.806634 0.479899 0.5 -0.728011 0.113276
390 1 0.694568 0.39902 0.5 -0.458477 -0.105911
391 1 0.789377 0.332029 0.5 -0.0328014 -0.8445
392 1 0.0380706 0.679202 0.5 0.44075 0.243173
393 1 0.883182 0.172518 0.5 0.494072 0.330977
394 1 0.682277 0.581364 0.5 -0.545427 0.467306
395 1 0.785025 0.425447 0.5 0.906331 0.210614
396 1 0.669072 0.62515 0.5 -0.125458 -0.281138
397 1 0.782439 0.643247 0.5 -0.137768 -0.305112
398 1 0.87209 0.690959 0.5 -0.651329 -0.504084
399 1 0.882709 0.0160518 0.5 -0.0237208 -0.144761
400 1 0.797741 0.0987181 0.5 0.164438 0.800829
401 1 0.131088 0.636189 0.5 -0.0259976 -0.712242
402 1 0.77143 0.0405862 0.5 -0.537196 -0.539425
403 1 0.895465 0.534027 0.5 -0.0201292 -0.0172663
404 1 0.928591 0.275999 0.5 0.396081 -0.763849
405 1 0.725523 0.629367 0.5 0.339695 -0.310219
406 1 0.10869 0.351853 0.5 0.220863 0.553114
407 1 0.955242 0.72489 0.5 -0.298481 -0.838745
408 1 0.941581 0.505341 0.5 0.125351 -0.553799
409 1 0.706306 0.720992 0.5 0.62409 0.465451
410 1 0.679786 0.332657 0.5 0.233614 0.876546
411 1 0.723192 0.170649 0.5 -0.025188 -0.0983031
412 1 0.252544 0.85576 0.5 0.609014 -0.30752
413 1 0.86022 0.214512 0.5 -0.0886896 -0.441704
414 1 0.11165 0.477136 0.5 0.829829 0.227583
415 1 0.751497 0.493555 0.5 -0.215692 -0.327877
416 1 0.730943 0.544666 0.5 0.899296 -0.0726985
417 1 0.738272 0.265223 0.5 -0.276396 -0.744967
418 1 0.890947 0.48484 0.5 -0.845232 0.504513
419 1 0.923349 0.439227 0.5 -0.192388 -0.508552
420 1 0.671967 0.718727 0.5 0.246008 -0.0548985
421 1 0.642359 0.322235 0.5 -0.73098 0.174021
422 1 0.740708 0.653581 0.5 -0.332979 -0.602127
423 1 0.798909 0.127724 0.5 -0.271728 0.477063
424 1 0.868254 0.712515 0.5 -0.198834 -0.844959
425 1 0.968538 0.378528 0.5 0.136826 -0.611226
426 1 0.649756 0.530762 0.5 0.113519 0.550763
427 1 0.0141545 0.0636287 0.5 -0.5856 -0.245265
428 1 0.0706823 0.66782 0.5 -0.0977644 0.230319
429 1 0.20828 0.832587 0.5 -0.584184 0.29717
430 1 0.917569 0.421572 0.5 -0.0842045 -0.572592
431 1 0.671317 0.0799059 0.5 -0.0983104 0.416771
432 1 0.90905 0.205362 0.5 -0.890757 0.0786655
433 1 0.756149 0.161468 0.5 0.0139949 -0.7336
434 1 0.995736 0.464284 0.5 0.149201 0.632403
435 1 0.702536 0.539758 0.5 -0.73207 -0.462126
436 1 0.773873 0.396989 0.5 0.0681979 0.625958
437 1 0.638636 0.830359 0.5 0.37853 0.733801
438 1 0.676829 0.702518 0.5 -0.583348 0.31969
439 1 0.172775 0.375271 0.5 0.428282 -0.00120544
440 1 0.92906 0.714827 0.5 -0.130224 -0.741646
441 1 0.735341 0.949117 0.5 0.0918188 0.150749
442 1 0.667009 0.687199 0.5 -0.388029 0.770475
443 1 0.513063 0.976197 0.5 -0.699444 0.485007
444 1 0.937338 0.338423 0.5 -0.0349641 -0.142261
445 1 0.947925 0.988317 0.5 -0.034098 0.913634
446 1 0.722739 0.713779 0.5 0.622242 0.0482473
447 1 0.654859 0.510079 0.5 -0.469321 0.0191463
448 1 0.942026 0.247117 0.5 0.0164213 -0.200333
449 1 0.623875 0.844931 0.5 -0.128673 0.553469
450 1 0.965224 0.39791 0.5 -0.947015 0.0155958
451 1 0.105756 0.370779 0.5 -0.17133 0.464657
452 1 0.892294 0.0123263 0.5 -0.583189 -0.153302
453 1 0.630929 0.0204511 0.5 -0.0205806 0.783275
454 1 0.951902 0.242437 0.5 -0.215142 0.302282
455 1 0.570052 0.192236 0.5 0.0348655 -0.194532
456 1 0.136528 0.0040627 0.5 -0.028634 -0.330586
457 1 0.259934 0.554113 0.5 0.855661 0.145411
458 1 0.780322 0.999467 0.5 -0.0679405 -0.106394
459 1 0.820177 0.281836 0.5 -0.323607 0.385718
460 1 0.48179 0.105885 0.5 -0.0229276 0.457957
461 1 0.0928901 0.569165 0.5 0.0867999 -0.104543
462 1 0.341573 0.725282 0.5 0.226244 -0.821516
463 1 0.304584 0.871286 0.5 -0.0923526 -0.130833
464 1 0.0806964 0.519929 0.5 0.305967 -0.26677
465 1 0.847277 0.143006 0.5 0.787648 -0.0241088
466 1 0.134056 0.511126 0.5 -0.155811 0.0397493
467 1 0.0825771 0.669144 0.5 0.507337 -0.275749
468 1 0.881068 0.470434 0.5 -0.884695 0.161335
469 1 0.653493 0.253013 0.5 0.321965 -0.49902
470 1 0.124783 0.231044 0.5 0.111642 -0.235426
471 1 0.588328 0.514446 0.5 0 0
472 1 0.852521 0.822743 0.5 -0.173058 -0.273381
473 1 0.653144 0.978569 0.5 0.870065 0.394475
474 1 0.79058 0.258375 0.5 0.137976 0.126911
475 1 0.369954 0.338837 0.5 -0.815064 0.144856
476 1 0.511525 0.380006 0.5 -0.689144 0.212721
477 1 0.121574 0.727891 0.5 0.298304 0.365555
478 1 0.0899124 0.675479 0.5 -0.262502 -0.377936
479 1 0.936776 0.402966 0.5 0.363845 -0.492982
480 1 0.635194 0.284258 0.5 0.246587 0.850262
481 1 0.318291 0.623413 0.5 -0.637903 -0.553644
482 1 0.495215 0.393337 0.5 -0.738092 -0.103759
483 1 0.749911 0.702962 0.5 0.657759 -0.363561
484 1 0.161568 0.855048 0.5 0.825847 0.0303128
485 1 0.777458 0.577191 0.5 0.134765 -0.219495
486 1 0.929852 0.134776 0.5 -0.8507 -0.322975
487 1 0.731548 0.2306 0.5 0.173726 0.339453
488 1 0.59769 0.211675 0.5 0.329951 -0.610161
489 1 0.832267 0.544379 0.5 -0.531381 -0.17935
490 1 0.796171 0.846704 0.5 0.364937 0.515029
491 1 0.422768 0.115955 0.5 0.658835 -0.640511
492 1 0.888012 0.655278 0.5 -0.211752 -0.390605
493 1 0.624858 0.643106 0.5 -0.612291 0.384061
494 1 0.544283 0.772799 0.5 -0.636571 -0.0984961
495 1 0.711568 0.730881 0.5 0.138128 0.25088
496 1 0.0457722 0.174665 0.5 0.281037 0.384752
497 1 0.774634 0.984044 0.5 0.193245 -0.0527614
498 1 0.867299 0.455979 0.5 0.0920945 0.28338
499 1 0.644256 0.368279 0.5 0.467847 -0.151061
500 1 0.842957 0.61749 0.5 -0.0746807 -0.609186
501 1 0.0716606 0.522826 0.5 0.0145187 -0.689884
502 1 0.293791 0.788313 0.5 -0.754252 0.433443
503 1 0.882153 0.190848 0.5 -0.794316 0.241052
504 1 0.628789 0.141674 0.5 0.518625 0.705452
505 1 0.655267 0.639275 0.5 -0.0349593 -0.81164
506 1 0.592108 0.30269 0.5 0.199325 0.86349
507 1 0.471474 0.0949638 0.5 -0.129805 0.00201643
508 1 0.820534 0.771508 0.5 -0.27731 0.852301
509 1 0.217086 0.181707 0.5 -0.246547 0.157259
510 1 0.721416 0.0498404 0.5 -0.0970666 0.470269
511 1 0.888633 0.50921 0.5 -0.333705 -0.428378
512 1 0.772184 0.488806 0.5 0.449873 -0.767746
513 1 0.618556 0.695653 0.5 -0.0880569 -0.0754681
514 1 0.363749 0.057973 0.5 0.605295 -0.550181
515 1 0.822069 0.343012 0.5 -0.391228 0.734577
516 1 0.682636 0.812187 0.5 0.159502 0.262624
517 1 0.845312 0.529196 0.5 0.464815 -0.200115
518 1 0.71548 0.55347 0.5 0.612669 0.283867
519 1 0.814303 0.248141 0.5 -0.588037 -0.429626
520 1 0.632289 0.683687 0.5 0.250644 -0.307948
521 1 0.402273 0.0315029 0.5 0.537514 -0.253452
522 1 0.552369 0.414056 0.5 0.293697 0.120338
523 1 0.999767 0.37383 0.5 -0.293009 0.107158
524 1 0.998935 0.594372 0.5 -0.648121 0.210542
525 1 0.705023 0.603363 0.5 0.0213063 -0.421498
526 1 0.66586 0.825641 0.5 -0.186287 -0.393398
527 1 0.0878183 0.179187 0.5 0.241221 -0.697649
528 1 0.824621 0.504181 0.5 -0.708771 0.278756
529 1 0.443313 0.907258 0.5 0.919766 0.344589
530 1 0.852683 0.63324 0.5 -0.0796278 0.150499
531 1 0.761111 0.326354 0.5 -0.30302 -0.098706
532 1 0.205649 0.660051 0.5 0.848974 -0.0194782
533 1 0.398105 0.22629 0.5 -0.73496 -0.244222
534 1 0.535165 0.288818 0.5 -0.16692 -0.620214
535 1 0.72725 0.675964 0.5 0.398767 -0.0508178
536 1 0.95869 0.379892 0.5 -0.0153627 -0.204965
537 1 0.000646314 0.219803 0.5 0.22572 -0.514252
538 1 0.839346 0.451309 0.5 -0.118007 0.164079
539 1 0.410321 0.884343 0.5 -0.194621 0.283909
540 1 0.200029 0.847584 0.5 -0.279838 -0.177129
541 1 0.490693 0.148819 0.5 -0.250591 -0.440451
542 1 0.153686 0.591029 0.5 -0.447961 -0.514871
543 1 0.941643 0.237575 0.5 -0.179584 0.0256844
544 1 0.580615 0.31834 0.5 0.0609003 0.222541
545 1 0.286904 0.571027 0.5 -0.167207 -0.417598
546 1 0.755236 0.63206 0.5 -0.373944 0.637224
547 1 0.35221 0.220241 0.5 -0.689757 -0.22098
548 1 0.303374 0.991133 0.5 0.32552 -0.577238
549 1 0.15043 0.91152 0.5 -0.774795 0.483086
550 1 0.939873 0.392842 0.5 -0.236017 -0.610496
551 1 0.566782 0.151107 0.5 -0.743746 0.342412
552 1 0.898102 0.245865 0.5 -0.803298 -0.161469
553 1 0.617745 0.882124 0.5 -0.0323128 -0.00352974
554 1 0.589721 0.532241 0.5 -0.0968942 -0.261159
555 1 0.069411 0.331758 0.5 0.116149 -0.641305
556 1 0.78641 0.604345 0.5 -0.359716 0.0614036
557 1 0.859864 0.0171404 0.5 0 0
558 1 0.643657 0.865111 0.5 0.0975139 0.186456
559 1 0.251627 0.506232 0.5 0.0575279 -0.724601
560 1 0.0800809 0.490605 0.5 -0.244545 0.50941
561 1 0.0591085 0.372322 0.5 0.637933 -0.347418
562 1 0.980265 0.148717 0.5 -0.214336 0.621829
563 1 0.956095 0.571326 0.5 0.19754 0.659006
564 1 0.352144 0.69835 0.5 -0.777258 0.158502
565 1 0.775992 0.280907 0.5 -0.640158 -0.216849
566 1 0.655177 0.270087 0.5 -0.0956936 -0.484318
567 1 0.596809 0.464617 0.5 0.704665 -0.417126
568 1 0.609248 0.0267526 0.5 0.461858 -0.105324
569 1 0.643337 0.227584 0.5 0.469859 0.20407
570 1 0.62485 0.902897 0.5 -0.024337 0.177303
571 1 0.922501 0.377018 0.5 -0.832836 -0.514528
572 1 0.812024 0.696994 0.5 0.608474 -0.203451
573 1 0.837776 0.441761 0.5 -0.73853 0.0225547
574 1 0.0834514 0.985248 0.5 -0.196377 -0.881689
575 1 0.0367519 0.446187 0.5 0.496013 0.295399
576 1 0.503454 0.961219 0.5 0.0513768 0.17399
577 1 0.98756 0.378963 0.5 -0.84315 0.184127
578 1 0.82269 0.59622 0.5 -0.00379101 -0.576851
579 1 0.0142672 0.450584 0.5 0.279613 -0.03069
580 1 0.122379 0.423265 0.5 -0.553721 -0.467731
581 1 0.126866 0.462223 0.5 -0.78569 -0.280131
582 1 0.133235 0.336875 0.5 0.358893 0.14161
583 1 0.564378 0.610751 0.5 -0.731074 0.105248
584 1 0.694492 0.575153 0.5 0.339916 -0.406972
585 1 0.316927 0.862779 0.5 0.256339 -0.0503788
586 1 0.731177 0.177972 0.5 -0.430621 -0.409025
587 1 0.970918 0.4848 0.5 0.356267 0.127498
588 1 0.802984 0.348436 0.5 0.392473 -0.150881
589 1 0.627644 0.036105 0.5 0.449443 0.338803
590 1 0.693491 0.543962 0.5 -0.496234 0.0285345
591 1 0.00424821 0.716859 0.5 -0.0862629 -0.301068
592 1 0.684639 0.372534 0.5 -0.0839946 0.418866
593 1 0.621463 0.427502 0.5 0.701647 -0.0534305
594 1 0.683299 0.162731 0.5 -0.0960368 -0.281964
595 1 0.938054 0.712321 0.5 -0.293663 -0.80372
596 1 0.371693 0.676994 0.5 -0.330782 0.250533
597 1 0.85731 0.358644 0.5 0.157207 -0.153046
598 1 0.779952 0.416801 0.5 0.701433 0.368752
599 1 0.382646 0.966697 0.5 0.34049 -0.197421
600 1 0.753524 0.811976 0.5 0.417646 -0.803561
601 1 0.568133 0.516142 0.5 0 0
602 1 0.970877 0.632816 0.5 -0.174916 0.0218282
603 1 0.710456 0.620458 0.5 -0.229697 0.0749023
604 1 0.960149 0.0383147 0.5 -0.0798936 0.316623
605 1 0.771807 0.834345 0.5 0.249556 -0.274432
606 1 0.289703 0.242641 0.5 -0.27326 0.564625
607 1 0.566422 0.682044 0.5 0.562633 0.128267
608 1 0.323834 0.404389 0.5 0.404448 0.637842
609 1 0.379638 0.0293957 0.5 0.404044 0.53975
610 1 0.728392 0.447173 0.5 0.00631218 -0.825236
611 1 0.4063 0.793654 0.5 -0.0770315 -0.837286
612 1 0.455205 0.965361 0.5 -0.391146 0.302825
613 1 0.274204 0.73913 0.5 0.202726 0.274127
614 1 0.722911 0.649716 0.5 0.469454 -0.686503
615 1 0.551 0.873787 0.5 0.363156 -0.458158
616 1 0.3147 0.964635 0.5 -0.0850259 -0.227189
617 1 0.686778 0.985607 0.5 -0.350643 0.495837
618 1 0.075476 0.746592 0.5 -0.164601 0.564289
619 1 0.835285 0.469786 0.5 0.396946 -0.377853
620 1 0.427081 0.817329 0.5 0.274268 -0.921873
621 1 0.916629 0.980167 0.5 -0.618735 0.230007
622 1 0.584723 0.667354 0.5 -0.718968 0.388208
623 1 0.981124 0.995554 0.5 0.217223 0.542863
624 1 0.454392 0.776203 0.5 0.47096 0.37834
625 1 0.594671 0.899655 0.5 0.303867 0.0260666
626 1 0.143822 0.663784 0.5 0.371425 -0.0522736
627 1 0.780522 0.693729 0.5 0.396052 0.626308
628 1 0.682903 0.858343 0.5 0.760843 -0.574131
629 1 0.6512 0.998792 0.5 0.460364 -0.115894
630 1 0.13256 0.42848 0.5 -0.332651 -0.530603
631 1 0.756367 0.174021 0.5 -0.279241 0.286548
632 1 0.829284 0.71649 0.5 0.161549 -0.13658
633 1 0.71002 0.652613 0.5 0.0656231 -0.686138
634 1 0.602929 0.741262 0.5 0.160696 0.478894
635 1 0.704864 0.319902 0.5 -0.0806007 0.634352
636 1 0.975811 0.575018 0.5 0.248387 0.801563
637 1 0.889954 0.598584 0.5 -0.748076 0.254507