ITEM: TIMESTEP
0
ITEM: NUMBER OF ATOMS
9322
ITEM: BOX BOUNDS pp pp pp
-5.8359999999999999e+01 5.8359999999999999e+01
-5.8359999999999999e+01 5.8359999999999999e+01
-5.0000000000000000e-01 5.0000000000000000e-01
ITEM: ATOMS id type xs ys zs c_002[1] c_002[2]
1 1 0.444956 0.555177 0.5 0.596491 -0.613338
2 1 0.958808 0.561421 0.5 -0.490836 -0.0532715
3 1 0.878254 0.481971 0.5 0.0529566 -0.529933
4 1 0.855151 0.412134 0.5 0.222213 -0.271579
5 1 0.774043 0.515005 0.5 0.696558 -0.679326
6 1 0.727973 0.280452 0.5 0.231201 0.0763623
7 1 0.984479 0.345903 0.5 -0.8322 0.169172
8 1 0.58165 0.0710562 0.5 -0.442363 0.85066
9 1 0.481683 0.0348373 0.5 -0.336075 -0.668105
10 1 0.813541 0.743272 0.5 0.474578 0.339312
11 1 0.472955 0.312073 0.5 0.403377 -0.552276
12 1 0.154899 0.635335 0.5 0.792872 -0.319
13 1 0.676993 0.154749 0.5 -0.133741 -0.034732
14 1 0.944565 0.17897 0.5 0.435195 -0.545059
15 1 0.066494 0.569863 0.5 0.789672 -0.372552
16 1 0.688858 0.0315029 0.5 -0.382989 0.691038
17 1 0.928053 0.15102 0.5 0.17398 0.186619
18 1 0.19024 0.592197 0.5 -0.550085 0.565431
19 1 0.497288 0.236345 0.5 -0.2238 -0.506402
20 1 0.896708 0.385604 0.5 -0.0743213 0.169371
21 1 0.655588 0.134099 0.5 0.129091 0.605923
22 1 0.701938 0.170589 0.5 -0.265458 0.552859
23 1 0.289434 0.0593233 0.5 -0.381817 0.462671
24 1 0.133552 0.879657 0.5 0.769432 0.42239
25 1 0.788062 0.123475 0.5 0.485088 0.82739
26 1 0.368551 0.324297 0.5 -0.913462 0.102309
27 1 0.418854 0.477571 0.5 -0.704778 0.0944337
28 1 0.0264358 0.297856 0.5 -0.163938 0.422452
29 1 0.553582 0.856689 0.5 0.459757 -0.313831
30 1 0.791909 0.934886 0.5 -0.0474888 0.496544
31 1 0.57767 0.395246 0.5 -0.0553202 -0.688783
32 1 0.338054 0.333236 0.5 -0.683612 0.133777
33 1 0.421084 0.0966798 0.5 -0.10635 -0.114535
34 1 0.894759 0.320627 0.5 0.0175734 -0.781258
35 1 0.911956 0.210714 0.5 -0.326434 -0.67834
36 1 0.0247605 0.155713 0.5 0.117464 0.832148
37 1 0.545353 0.542227 0.5 -0.534734 -0.123466
38 1 0.853329 0.023553 0.5 -0.116124 0.458967
39 1 0.8575 0.333926 0.5 -0.448424 -0.419261
40 1 0.228027 0.426599 0.5 0.24885 -0.650754
41 1 0.312717 0.301051 0.5 -0.380375 -0.736905
42 1 0.253254 0.0762287 0.5 -0.373051 -0.121754
43 1 0.0427715 0.217259 0.5 0.517432 0.299763
44 1 0.737738 0.518554 0.5 -0.119296 0.185122
45 1 0.975582 0.5714 0.5 -0.260062 -0.383624
46 1 0.598127 0.189188 0.5 -0.609197 0.0744666
47 1 0.945309 0.389457 0.5 0.653387 -0.200899
48 1 0.658917 0.996904 0.5 -0.713175 0.192647
49 1 0.113689 0.974716 0.5 -0.59501 -0.0683481
50 1 0.500166 0.313561 0.5 0.155903 -0.225461
51 1 0.938514 0.448043 0.5 0.19972 0.311983
52 1 0.348631 0.82073 0.5 0.137893 0.704946
53 1 0.736394 0.761157 0.5 0.866109 0.377219
54 1 0.517025 0.809692 0.5 -0.170543 -0.552989
55 1 0.758844 0.376002 0.5 0.551721 -0.10265
56 1 0.603307 0.0350603 0.5 0.828562 -0.145141
57 1 0.450328 0.580561 0.5 0.928154 0.313332
58 1 0.0132004 0.925258 0.5 0.2972 -0.267641
59 1 0.928508 0.96516 0.5 0.0575089 -0.771555
60 1 0.446079 0.772251 0.5 0.426729 0.591622
61 1 0.687448 0.100931 0.5 0.58246 0.255627
62 1 0.703213 0.795614 0.5 0.0494192 -0.324266
63 1 0.264956 0.995246 0.5 0.768059 -0.534309
64 1 0.227084 0.330821 0.5 -0.0308951 -0.290631
65 1 0.776744 0.0142461 0.5 -0.357061 -0.118306
66 1 0.979148 0.290368 0.5 0.277164 0.0537813
67 1 0.327443 0.251395 0.5 0.28548 0.393788
68 1 0.551141 0.154642 0.5 -0.277284 -0.0594548
69 1 0.0819597 0.560656 0.5 0.350973 0.0401436
70 1 0.121923 0.792928 0.5 -0.762703 0.361859
71 1 0.897423 0.435779 0.5 -0.598645 -0.268738
72 1 0.9776 0.528962 0.5 0.0383905 0.287392
73 1 0.368886 0.909763 0.5 0.177387 0.374729
74 1 0.615543 0.402719 0.5 -0.476216 0.43571
75 1 0.984336 0.732766 0.5 -0.0296811 0.916176
76 1 0.433235 0.0123528 0.5 0.0888596 -0.444417
77 1 0.776967 0.241075 0.5 0.70829 0.0383073
78 1 0.0470073 0.934092 0.5 -0.477486 0.644702
79 1 0.800818 0.108035 0.5 0.442128 0.771066
80 1 0.738785 0.530224 0.5 -0.435057 0.114068
81 1 0.734753 0.0827663 0.5 0.71752 0.13263
82 1 0.772727 0.904609 0.5 0.280213 -0.342192
83 1 0.917975 0.380467 0.5 -0.455362 -0.435107
84 1 0.753378 0.387531 0.5 0.308887 -0.287664
85 1 0.0496673 0.847379 0.5 -0.217131 -0.243701
86 1 0.878188 0.244462 0.5 0.313681 -0.317138
87 1 0.226836 0.258388 0.5 -0.581012 -0.234795
88 1 0.662784 0.0325606 0.5 -0.192076 -0.257115
89 1 0.109847 0.579823 0.5 -0.920909 -0.00811475
90 1 0.0272483 0.626045 0.5 -0.211689 0.0710112
91 1 0.343748 0.301417 0.5 -0.191872 -0.781532
92 1 0.8646 0.209763 0.5 0.34918 -0.607676
93 1 0.553187 0.0177115 0.5 0.460793 -0.314615
94 1 0.846843 0.205238 0.5 -0.217557 -0.508374
95 1 0.0133824 0.300242 0.5 0.541829 0.111716
96 1 0.968984 0.346836 0.5 0.0497311 -0.239482
97 1 0.0872728 0.808219 0.5 0.312679 0.515535
98 1 0.275484 0.0784506 0.5 -0.278478 -0.575651
99 1 0.535871 0.451491 0.5 0.215996 0.137423
100 1 0.465727 0.0747405 0.5 -0.04841 0.173858
101 1 0.561511 0.791739 0.5 -0.855008 0.333861
102 1 0.534329 0.0122907 0.5 -0.814429 0.540517
103 1 0.0721369 0.0391194 0.5 0.132291 0.0569583
104 1 0.214596 0.580837 0.5 -0.0796836 -0.109388
105 1 0.878644 0.0491651 0.5 -0.627567 -0.667476
106 1 0.378939 0.947544 0.5 -0.661016 -0.487472
107 1 0.947172 0.412078 0.5 0.775761 -0.329646
108 1 0.0748072 0.105985 0.5 -0.622556 -0.323003
109 1 0.828087 0.450372 0.5 0.387141 0.400442
110 1 0.881347 0.459436 0.5 -0.647873 0.0357595
111 1 0.584788 0.700206 0.5 -0.601241 0.522071
112 1 0.00725315 0.063181 0.5 0.471155 -0.186849
113 1 0.0190198 0.632496 0.5 -0.434725 0.841477
114 1 0.121071 0.00891473 0.5 0.049843 0.725722
115 1 0.945543 0.680473 0.5 -0.232636 0.421237
116 1 0.906135 0.857412 0.5 -0.301621 0.0335162
117 1 0.5785 0.142664 0.5 -0.587092 -0.0795199
118 1 0.62748 0.900853 0.5 -0.598645 -0.122737
119 1 0.0803924 0.509708 0.5 0.332542 -0.570281
120 1 0.491799 0.984863 0.5 0.55601 0.707204
121 1 0.273964 0.0172048 0.5 -0.730565 0.494038
122 1 0.792605 0.394565 0.5 0.226711 -0.188798
123 1 0.519257 0.986829 0.5 -0.744982 0.246309
124 1 0.690976 0.273743 0.5 -0.0313446 -0.744586
125 1 0.602671 0.133294 0.5 0.444824 0.0217108
126 1 0.3519 0.236419 0.5 0.363901 0.254607
127 1 0.338966 0.0924434 0.5 0.43476 -0.114184
128 1 0.861343 0.467961 0.5 -0.509672 -0.599456
129 1 0.567473 0.359426 0.5 -0.219092 -0.17533
130 1 0.606911 0.347634 0.5 0.187916 0.868094
131 1 0.0464023 0.226219 0.5 0.177152 -0.0821795
132 1 0.305248 0.256479 0.5 0.207609 0.233146
133 1 0.668434 0.499001 0.5 -0.0405529 0.416147
134 1 0.740882 0.145416 0.5 -0.314037 -0.234153
135 1 0.029787 0.958299 0.5 0.440444 0.29499
136 1 0.329874 0.327084 0.5 -0.445221 0.0352997
137 1 0.0561676 0.398464 0.5 0.137213 -0.769709
138 1 0.713566 0.943947 0.5 0.414205 0.731982
139 1 0.577025 0.0980089 0.5 0.125777 0.515688
140 1 0.915639 0.564674 0.5 0.668217 0.238424
141 1 0.0983161 0.687553 0.5 -0.123168 -0.58803
142 1 0.940089 0.342102 0.5 0.0473656 -0.271435
143 1 0.00229733 0.808867 0.5 -0.311904 -0.0690012
144 1 0.118824 0.719424 0.5 -0.00851366 -0.22971
145 1 0.535066 0.0219107 0.5 -0.6625 0.628467
146 1 0.956146 0.0593394 0.5 0.155414 -0.582287
147 1 0.361458 0.235616 0.5 -0.278167 0.204074
148 1 0.35581 0.0997504 0.5 0.793572 -0.221323
149 1 0.792305 0.472807 0.5 -0.542009 -0.0918974
150 1 0.994278 0.211314 0.5 -0.338345 0.440136
151 1 0.571056 0.458455 0.5 -0.527709 0.548223
152 1 0.627922 0.92143 0.5 -0.950109 0.072094
153 1 0.929515 0.444359 0.5 0.388179 0.351991
154 1 0.16586 0.605842 0.5 -0.143347 0.600668
155 1 0.839386 0.183536 0.5 0.209573 0.679131
156 1 0.951686 0.611846 0.5 0 0
157 1 0.153864 0.138077 0.5 0.179968 0.336591
158 1 0.88525 0.623536 0.5 -0.0623193 -0.398631
159 1 0.478976 0.00205994 0.5 0 0
160 1 0.299162 0.456103 0.5 -0.198069 -0.052023
161 1 0.0899246 0.790098 0.5 0.845633 0.273662
162 1 0.414129 0.154666 0.5 -0.246587 0.700313
163 1 0.676021 0.18786 0.5 0.294854 -0.445533
164 1 0.793687 0.378059 0.5 0.308339 -0.109198
165 1 0.639566 0.158523 0.5 0.157985 0.257458
166 1 0.777678 0.964372 0.5 0.313543 0.027893
167 1 0.718964 0.392667 0.5 -0.547017 -0.490399
168 1 0.90895 0.0643329 0.5 0.0908682 0.191796
169 1 0.291696 0.244038 0.5 -0.206782 0.34675
170 1 0.662306 0.334855 0.5 -0.35423 0.121895
171 1 0.707262 0.983084 0.5 0.442813 -0.204226
172 1 0.951146 0.380936 0.5 0.445168 -0.30665
173 1 0.576344 0.616708 0.5 -0.430815 0.826299
174 1 0.995138 0.917295 0.5 -0.227977 -0.664935
175 1 0.265799 0.896445 0.5 0.111578 -0.00455002
176 1 0.655952 0.571602 0.5 -0.0521194 0.696946
177 1 0.666746 0.0698569 0.5 0.313486 -0.000248763
178 1 0.0770231 0.374857 0.5 -0.086925 -0.341597
179 1 0.435486 0.825046 0.5 -0.0263276 -0.264662
180 1 0.631043 0.401264 0.5 0.534697 -0.34035
181 1 0.225919 0.794836 0.5 -0.169967 -0.180183
182 1 0.121454 0.354064 0.5 -0.636701 -0.411927
183 1 0.622013 0.530317 0.5 -0.564918 -0.123121
184 1 0.948836 0.546081 0.5 0.558334 0.234484
185 1 0.908592 0.252352 0.5 0.630576 -0.00628473
186 1 0.93224 0.233474 0.5 0.40475 -0.134142
187 1 0.620671 0.673081 0.5 -0.71189 0.38399
188 1 0.754185 0.697595 0.5 0.354975 -0.171461
189 1 0.0319687 0.757586 0.5 0.136243 -0.415796
190 1 0.636422 0.197309 0.5 -0.0140156 0.649354
191 1 0.0288334 0.135476 0.5 0.869854 0.174531
192 1 0.860549 0.480786 0.5 -0.507959 0.387277
193 1 0.218061 0.631982 0.5 -0.225753 0.605701
194 1 0.39152 0.227976 0.5 -0.759372 -0.387692
195 1 0.932785 0.481007 0.5 0.468376 0.330866
196 1 0.587752 0.733319 0.5 -0.217038 -0.157214
197 1 0.110888 0.732582 0.5 0.226107 -0.473716
198 1 0.293123 0.302639 0.5 0.658112 0.421984
199 1 0.514063 0.250072 0.5 0.33371 -0.0629264
200 1 0.599411 0.226352 0.5 0.453928 -0.229466
201 1 0.454176 0.299042 0.5 0 0
202 1 0.227761 0.619337 0.5 -0.220852 -0.118059
203 1 0.785272 0.367728 0.5 0.365529 -0.368931
204 1 0.265066 0.208206 0.5 0.376839 -0.0651763
205 1 0.305541 0.658384 0.5 -0.286091 0.059331
206 1 0.133362 0.705904 0.5 -0.435472 0.612707
207 1 0.30744 0.776472 0.5 -0.0114684 0.0744335
208 1 0.879394 0.41019 0.5 0.140587 0.137701
209 1 0.456182 0.82153 0.5 0.353074 -0.513636
210 1 0.444538 0.166174 0.5 -0.000609297 -0.980903
211 1 0.687217 0.475761 0.5 -0.40133 -0.389774
212 1 0.876871 0.80242 0.5 0.405075 -0.183845
213 1 0.901177 0.096331 0.5 0.274129 0.704897
214 1 0.583627 0.287559 0.5 0.384896 0.476299
215 1 0.0594085 0.798077 0.5 -0.124553 0.0171156
216 1 0.636795 0.409465 0.5 0.838801 -0.404503
217 1 0.0977051 0.269444 0.5 -0.601721 -0.472147
218 1 0.955713 0.177184 0.5 0.45971 -0.293818
219 1 0.451958 0.174 0.5 -0.495738 -0.390997
220 1 0.623226 0.874713 0.5 -0.568898 -0.570214
221 1 0.0195525 0.248989 0.5 -0.358645 -0.76661
222 1 0.733238 0.570869 0.5 -0.233913 -0.071987
223 1 0.116979 0.136967 0.5 0.485002 0.697614
224 1 0.810095 0.286194 0.5 -0.5015 -0.125904
225 1 0.535103 0.88357 0.5 0.560398 0.458819
226 1 0.816041 0.203538 0.5 0.476496 -0.581494
227 1 0.10413 0.948729 0.5 -0.436071 0.08616
228 1 0.899117 0.195139 0.5 -0.0759933 -0.0855471
229 1 0.864298 0.594736 0.5 0.0563114 -0.337131
230 1 0.767979 0.216414 0.5 -0.506749 0.618755
231 1 0.750164 0.994262 0.5 0.0715983 0.0801023
232 1 0.432138 0.329558 0.5 0.0547145 -0.813929
233 1 0.173574 0.65736 0.5 0.213317 0.685598
234 1 0.633353 0.312814 0.5 0.555937 0.601169
235 1 0.0754918 0.408393 0.5 -0.0449518 -0.252227
236 1 0.260126 0.68079 0.5 0.154447 -0.491137
237 1 0.395462 0.902506 0.5 0.708638 0.572994
238 1 0.48117 0.2315 0.5 0.602229 -0.359295
239 1 0.985722 0.125511 0.5 0.590587 0.0706049
240 1 0.958178 0.950113 0.5 -0.190569 -0.722956
241 1 0.179872 0.804793 0.5 -0.837782 0.284794
242 1 0.613987 0.309829 0.5 0.435073 0.759761
243 1 0.908495 0.280308 0.5 -0.693634 0.416546
244 1 0.172575 0.423379 0.5 -0.527791 0.224261
245 1 0.493342 0.159241 0.5 0.192266 -0.143132
246 1 0.900057 0.739819 0.5 0.246932 0.0506254
247 1 0.725133 0.63353 0.5 -0.334978 -0.208672
248 1 0.93804 0.913099 0.5 -0.697367 -0.239383
249 1 0.783184 0.230785 0.5 0.468363 0.520815
250 1 0.526547 0.614128 0.5 0.376775 0.391657
251 1 0.573419 0.705248 0.5 -0.576954 0.56896
252 1 0.931401 0.508896 0.5 0.066081 -0.0300713
253 1 0.842474 0.414626 0.5 0.546207 -0.15128
254 1 0.952324 0.137646 0.5 -0.141734 0.238795
255 1 0.85738 0.143282 0.5 0.233494 0.237981
256 1 0.745687 0.630338 0.5 -0.350708 0.406389
257 1 0.982146 0.722833 0.5 0.420885 0.636175
258 1 0.0308573 0.69701 0.5 0 0
259 1 0.520539 0.283757 0.5 -0.00495325 0.513549
260 1 0.768775 0.146885 0.5 -0.151313 0.0939939
261 1 0.97668 0.122151 0.5 0.610629 -0.017285
262 1 0.751367 0.967889 0.5 0.0803601 0.220746
263 1 0.354704 0.382715 0.5 0.894806 -0.211742
264 1 0.183215 0.073493 0.5 -0.0982691 0.476114
265 1 0.558117 0.915041 0.5 0.354595 0.327046
266 1 0.238105 0.88393 0.5 0.159212 0.09768
267 1 0.171094 0.463444 0.5 0.0942512 0.0118267
268 1 0.181206 0.577238 0.5 -0.370238 -0.302251
269 1 0.362829 0.289039 0.5 0.419894 0.106994
270 1 0.0819212 0.500145 0.5 0.0998309 -0.842148
271 1 0.888509 0.120247 0.5 0.175126 0.202306
272 1 0.0955018 0.469494 0.5 0.665305 -0.0423273
273 1 0.408663 0.599235 0.5 -0.134736 0.214341
274 1 0.634676 0.136865 0.5 -0.339332 0.521365
275 1 0.486504 0.353941 0.5 -0.7668 -0.0758069
276 1 0.0976972 0.189527 0.5 0.538948 0.337834
277 1 0.535762 0.952702 0.5 0.375048 0.00548172
278 1 0.0675575 0.337223 0.5 -0.28307 -0.394377
279 1 0.239681 0.543538 0.5 0.179353 -0.316539
280 1 0.709827 0.00421608 0.5 0.624236 -0.311165
281 1 0.503169 0.208981 0.5 -0.716682 -0.31946
282 1 0.76587 0.366417 0.5 -0.0335997 0.656746
283 1 0.0504363 0.581323 0.5 0.464734 -0.308195
284 1 0.66239 0.0611339 0.5 0.201791 -0.271733
285 1 0.668568 0.353868 0.5 -0.174313 0.138215
286 1 0.876187 0.398336 0.5 -0.173506 0.0116479
287 1 0.738852 0.200701 0.5 -0.743427 -0.0250701
288 1 0.954027 0.000837144 0.5 0.026439 0.0314339
289 1 0.801794 0.292681 0.5 -0.326444 -0.393283
290 1 0.57503 0.505393 0.5 0.37662 -0.523284
291 1 0.858944 0.0800288 0.5 0.129221 0.294756
292 1 0.141412 0.623235 0.5 -0.29482 0.728189
293 1 0.259113 0.107085 0.5 0.854945 -0.263624
294 1 0.748797 0.708128 0.5 0.728324 -0.0445486
295 1 0.648107 0.0840095 0.5 -0.773307 -0.0537936
296 1 0.932517 0.654401 0.5 0.518294 -0.397346
297 1 0.642629 0.856189 0.5 -0.0767797 -0.0544195
298 1 0.0643905 0.736475 0.5 0.176003 -0.087146
299 1 0.493262 0.827663 0.5 -0.0959126 -0.197468
300 1 0.0394461 0.534821 0.5 -0.484802 -0.561691
301 1 0.167122 0.90271 0.5 -0.675887 -0.320699
302 1 0.384971 0.694576 0.5 0.517782 0.522419
303 1 0.370853 0.10857 0.5 0.809902 -0.232784
304 1 0.884564 0.101006 0.5 -0.464542 0.011995
305 1 0.865258 0.872354 0.5 0 0
306 1 0.986486 0.907931 0.5 0.182596 0.110566
307 1 0.788547 0.570883 0.5 -0.756591 -0.347344
308 1 0.293391 0.683366 0.5 -0.147793 -0.244413
309 1 0.875544 0.537097 0.5 0.899273 -0.317936
310 1 0.936132 0.688701 0.5 -0.455438 0.688459
311 1 0.638139 0.353611 0.5 0.355609 0.455455
312 1 0.574064 0.320495 0.5 -0.232245 0.0343064
313 1 0.712766 0.685827 0.5 0.588964 0.333069
314 1 0.966906 0.482094 0.5 0.145787 -0.604163
315 1 0.122389 0.618897 0.5 0.682666 0.47619
316 1 0.517008 0.272849 0.5 -0.0999292 0.290606
317 1 0.063834 0.376258 0.5 0.379468 -0.388061
318 1 0.829045 0.49546 0.5 -0.00344982 0.171423
319 1 0.735799 0.630753 0.5 0.565436 -0.381911
320 1 0.852385 0.952754 0.5 -0.271318 0.288166
321 1 0.616836 0.318981 0.5 0.286565 0.876947
322 1 0.373957 0.897101 0.5 -0.161248 0.0469222
323 1 0.826951 0.105079 0.5 0.725787 0.363537
324 1 0.0239336 0.863198 0.5 0.0142982 -0.938377
325 1 0.876234 0.361835 0.5 0.16806 -0.0793517
326 1 0.0405553 0.63029 0.5 -0.586966 0.409728
327 1 0.0609661 0.997834 0.5 0.840721 0.316299
328 1 0.139946 0.0344079 0.5 -0.138386 0.199835
329 1 0.168209 0.965067 0.5 -0.858105 -0.236131
330 1 0.981995 0.429105 0.5 0.176051 0.339629
331 1 0.144903 0.0849157 0.5 0.81858 -0.0411748
332 1 0.613579 0.226997 0.5 0.199188 0.193964
333 1 0.841589 0.358195 0.5 -0.650451 0.174046
334 1 0.196442 0.883864 0.5 0.786639 0.189605
335 1 0.678256 0.760207 0.5 -0.583159 -0.12659
336 1 0.381487 0.270057 0.5 0.467063 0.563425
337 1 0.208403 0.70097 0.5 -0.263511 -0.0753086
338 1 0.893344 0.690621 0.5 0.361557 -0.348725
339 1 0.011542 0.639666 0.5 -0.453412 0.808947
340 1 0.594697 0.409313 0.5 0.181514 -0.47642
341 1 0.177605 0.617465 0.5 -0.425124 0.726903
342 1 0.0153845 0.282024 0.5 -0.20828 0.579073
343 1 0.257325 0.421752 0.5 -0.0526551 0.417071
344 1 0.0214502 0.643631 0.5 -0.594323 0.635238
345 1 0.313815 0.95723 0.5 0.0560134 -0.505228
346 1 0.302103 0.796222 0.5 0.166747 0.500017
347 1 0.0118165 0.497405 0.5 0.18755 -0.0679119
348 1 0.911971 0.976908 0.5 0.620721 -0.211988
349 1 0.755398 0.623756 0.5 0.0628658 0.326855
350 1 0.306729 0.564283 0.5 0.602957 -0.425678
351 1 0.151732 0.147903 0.5 -0.0925984 0.000847347
352 1 0.649052 0.588366 0.5 -0.315594 0.230822
353 1 0.715876 0.460113 0.5 -0.177778 -0.29895
354 1 0.836269 0.199656 0.5 -0.307697 -0.146721
355 1 0.881376 0.98158 0.5 -0.0298568 -0.615909
356 1 0.39368 0.20893 0.5 -0.337142 -0.404482
357 1 0.697872 0.822017 0.5 -0.492922 -0.66192
358 1 0.938091 0.699463 0.5 0.073704 0.741117
359 1 0.242682 0.824475 0.5 0.516216 -0.00475819
360 1 0.306252 0.720577 0.5 0.452109 -0.249322
361 1 0.0176993 0.616703 0.5 0.749076 0.0220673
362 1 0.302274 0.687067 0.5 0.485454 -0.103446
363 1 0.697627 0.347689 0.5 0.448921 0.0343057
364 1 0.150644 0.528814 0.5 0.0710968 0.271979
365 1 0.290945 0.590633 0.5 0.0956384 -0.617638
366 1 0.216319 0.836033 0.5 -0.557159 -0.0722978
367 1 0.688431 0.719638 0.5 0.858283 -0.150317
368 1 0.794023 0.946496 0.5 -0.081237 0.68889
369 1 0.382216 0.490101 0.5 -0.21638 0.740166
370 1 0.0778224 0.991412 0.5 0.774199 0.194221
371 1 0.8442 0.758337 0.5 0.428607 0.0436481
372 1 0.310544 0.403506 0.5 0.968373 -0.184142
373 1 0.19 0.0571647 0.5 0.167442 0.409524
374 1 0.529609 0.993395 0.5 0.0515924 0.284352
375 1 0.667561 0.814249 0.5 0.71023 0.635385
376 1 0.832867 0.190533 0.5 0.518941 0.397773
377 1 0.976009 0.972469 0.5 -0.487471 0.181713
378 1 0.628364 0.0674029 0.5 -0.225822 0.758224
379 1 0.155348 0.736224 0.5 0.688371 0.453397
380 1 0.31731 0.519416 0.5 0.323896 -0.285565
381 1 0.675508 0.308469 0.5 -0.134405 0.459094
382 1 0.820981 0.540547 0.5 -0.332364 -0.153359
383 1 0.92539 0.993187 0.5 0.510574 -0.371673
384 1 0.0381666 0.521565 0.5 -0.0892767 0.364849
385 1 0.270415 0.969475 0.5 -0.410621 0.165709
386 1 0.389326 0.451454 0.5 -0.225521 0.333206
387 1 0.894038 0.809809 0.5 0.0584455 -0.0848707
388 1 0.323436 0.97574 0.5 0.157448 -0.771761
389 1 0.0354065 0.667488 0.5 -0.0296792 0.772373
390 1 0.708841 0.398276 0.5 -0.092649 -0.221734
391 1 0.0378837 0.6091 0.5 0.086081 0.439171
392 1 0.191628 0.766862 0.5 -0.0366198 -0.508505
393 1 0.0349632 0.893041 0.5 -0.320044 -0.29286
394 1 0.851692 0.556076 0.5 -0.467286 -0.167261
395 1 0.207824 0.729883 0.5 -0.697224 0.280169
396 1 0.767789 0.507205 0.5 0.282346 -0.875943
397 1 0.684362 0.6511 0.5 0.760219 -0.303025
398 1 0.803865 0.0749731 0.5 0.710833 0.506878
399 1 0.978176 0.225559 0.5 0.474756 0.532948
400 1 0.82431 0.404134 0.5 0.326026 0.3415
401 1 0.427578 0.26955 0.5 -0.123811 -0.70451
402 1 0.782249 0.934743 0.5 0.573829 0.518832
403 1 0.941414 0.608618 0.5 0.0817832 0.461959
404 1 0.109371 0.425049 0.5 0.634943 -0.676176
405 1 0.775956 0.733063 0.5 -0.318697 -0.727336
406 1 0.380135 0.409558 0.5 0.341919 0.309041
407 1 0.0655025 0.931749 0.5 -0.0914872 0.434206
408 1 0.00299674 0.922863 0.5 -0.315583 -0.018125
409 1 0.745596 0.873639 0.5 0.757611 -0.216801
410 1 0.784689 0.621262 0.5 0.133827 0.00293935
411 1 0.0977698 0.43981 0.5 -0.542026 -0.567459
412 1 0.277778 0.897035 0.5 0.890783 0.0685929
413 1 0.0309687 0.0218195 0.5 -0.0255705 0.525822
414 1 0.307014 0.499149 0.5 0.713155 0.410379
415 1 0.865122 0.730025 0.5 0.00130608 0.306984
416 1 0.982732 0.778903 0.5 -0.20554 -0.0229085
417 1 0.699599 0.438656 0.5 -0.805243 -0.216839
418 1 0.209318 0.925323 0.5 -0.369495 -0.392967
419 1 0.210941 0.482992 0.5 0.219895 -0.039551
420 1 0.746584 0.889184 0.5 0.0356888 -0.196321
421 1 0.95663 0.57222 0.5 -0.500438 -0.339814
422 1 0.820941 0.582207 0.5 -0.307314 0.000232747
423 1 0.962412 0.0664522 0.5 0.452591 -0.63903
424 1 0.919241 0.0652423 0.5 0.334236 -0.261899
425 1 0.170983 0.58067 0.5 0.0815038 -0.703313
426 1 0.623739 0.518354 0.5 0.21803 -0.526466
427 1 0.992437 0.183948 0.5 0.150631 -0.283073
428 1 0.239201 0.983711 0.5 -0.00846653 -0.344344
429 1 0.301105 0.0517201 0.5 0.25462 -0.0405362
430 1 0.34145 0.567055 0.5 -0.362425 0.112865
431 1 0.732606 0.267403 0.5 0.174945 -0.63569
432 1 0.968082 0.358947 0.5 -0.304549 -0.371643
433 1 0.938061 0.566149 0.5 0.108998 -0.542582
434 1 0.953367 0.463522 0.5 -0.451042 -0.305555
435 1 0.809893 0.0844967 0.5 0.591722 0.598548
436 1 0.0409188 0.649565 0.5 -0.136388 0.751352
437 1 0.749912 0.250395 0.5 0.778096 0.166823
438 1 0.84941 0.0472215 0.5 0.406738 -0.232575
439 1 0.189961 0.359511 0.5 0.55632 -0.480646
440 1 0.815768 0.810986 0.5 0.411772 0.457419
441 1 0.697534 0.0193433 0.5 0.0421295 -0.228434
442 1 0.901314 0.977129 0.5 0.555448 -0.536289
443 1 0.603454 0.950517 0.5 -0.686839 -0.0437307
444 1 0.280495 0.590545 0.5 0.559315 0.253453
445 1 0.0249636 0.9102 0.5 -0.402056 -0.305808
446 1 0.738225 0.864571 0.5 0.337169 0.0621023
447 1 0.771005 0.548075 0.5 -0.586037 -0.463165
448 1 0.779065 0.349286 0.5 0.760735 0.147217
449 1 0.65898 0.313766 0.5 -0.284783 0.158837
450 1 0.429043 0.733365 0.5 -0.0813889 0.28519
451 1 0.372654 0.498858 0.5 -0.516811 -0.0176894
452 1 0.119067 0.825063 0.5 0.492481 -0.32188
453 1 0.598479 0.259615 0.5 -0.225447 0.309333
454 1 0.998671 0.373898 0.5 -0.130284 0.378755
455 1 0.536219 0.359915 0.5 0.0198006 0.512541
456 1 0.0735506 0.178984 0.5 0.176044 -0.124033
457 1 0.344087 0.839356 0.5 -0.0279237 0.183472
458 1 0.868537 0.368022 0.5 0.457085 0.106907
459 1 0.0440348 0.483485 0.5 -0.0440329 -0.409732
460 1 0.323761 0.215497 0.5 0.344911 0.439633
461 1 0.994473 0.667474 0.5 -0.571408 0.38174
462 1 0.510805 0.980408 0.5 -0.426202 0.360387
463 1 0.315909 0.930611 0.5 0.661908 -0.356747
464 1 0.348657 0.327735 0.5 -0.770365 0.161137
465 1 0.780802 0.376494 0.5 0.793893 -0.333004
466 1 0.439771 0.580279 0.5 0.763921 0.557167
467 1 0.416002 0.634335 0.5 -0.0911276 0.390649
468 1 0.895061 0.750964 0.5 -0.186397 -0.0842164
469 1 0.552407 0.34119 0.5 0.401834 0.203901
470 1 0.293854 0.357476 0.5 0.145195 -0.479428
471 1 0.630155 0.536584 0.5 -0.423002 0.238761
472 1 0.919597 0.968881 0.5 -0.0614394 -0.057995
473 1 0.812597 0.2412 0.5 0.179184 0.396464
474 1 0.038928 0.581214 0.5 -0.0106062 -0.0814714
475 1 0.162294 0.213663 0.5 0.0849741 -0.0201772
476 1 0.656149 0.791891 0.5 0.33749 -0.850196
477 1 0.308258 0.742854 0.5 -0.141503 0.169587
478 1 0.400439 0.716888 0.5 0.304454 0.902423
479 1 0.886501 0.91021 0.5 0.102283 -0.414959
480 1 0.638679 0.321347 0.5 0.236251 0.0577047
481 1 0.433849 0.686008 0.5 -0.570498 0.366512
482 1 0.526065 0.562696 0.5 0.484388 0.173014
483 1 0.849421 0.778213 0.5 0.56754 -0.219871
484 1 0.231937 0.893087 0.5 0.807862 0.211824
485 1 0.16353 0.653796 0.5 0.386124 0.449041
486 1 0.164245 0.912756 0.5 -0.577175 -0.482214
487 1 0.502691 0.342417 0.5 -0.146652 -0.129823
488 1 0.775026 0.638782 0.5 0.615262 -0.398346
489 1 0.731402 0.675957 0.5 0.360912 0.594215
490 1 0.988021 0.983739 0.5 0.493061 0.123328
491 1 0.45802 0.190927 0.5 -0.689375 -0.129558
492 1 0.135909 0.631124 0.5 0.0606745 0.589584
493 1 0.594817 0.945065 0.5 -0.77211 0.17137
494 1 0.818057 0.753107 0.5 0.746932 0.289709
495 1 0.206171 0.936121 0.5 0.226152 -0.57188
496 1 0.037288 0.475613 0.5 -0.00227193 0.215237
497 1 0.6657 0.249623 0.5 -0.621806 -0.164803
498 1 0.0908838 0.509522 0.5 0.476388 -0.632666
499 1 0.635126 0.458443 0.5 0.399618 -0.316066
500 1 6.59483e-05 0.000573899 0.5 0 0
501 1 0.368031 0.435317 0.5 -0.524353 -0.095601
502 1 0.390574 0.83644 0.5 0.195203 -0.591026
503 1 0.130761 0.315264 0.5 0.913212 0.206463
504 1 0.782892 0.248976 0.5 0.485711 -0.504697
505 1 0.681326 0.205787 0.5 -0.479429 0.0116999
506 1 0.504733 0.196975 0.5 -0.748796 -0.5951
507 1 0.438804 0.0484524 0.5 0.0325782 -0.59629
508 1 0.64658 0.0647584 0.5 -0.381898 0.69239
509 1 0.00945933 0.451374 0.5 0.148101 -0.188481
510 1 0.794083 0.0732939 0.5 0.249752 0.442859
511 1 0.308995 0.541241 0.5 -0.211268 0.32078
512 1 0.145001 0.498183 0.5 0.433122 -0.0713851
513 1 0.665972 0.978154 0.5 0.411887 -0.378663
514 1 0.430138 0.232212 0.5 0.0691196 -0.400224
515 1 0.129071 0.571688 0.5 0.00726518 0.333153
516 1 0.968089 0.223305 0.5 0.130872 0.193005
517 1 0.874316 0.578895 0.5 0.0400921 -0.626778
518 1 0.681933 0.511707 0.5 0.111075 -0.0246228
519 1 0.740042 0.458943 0.5 -0.39695 0.0704794
520 1 0.454524 0.718274 0.5 0.0672874 -0.0460281
521 1 0.531294 0.82638 0.5 -0.100186 -0.906273
522 1 0.81872 0.487818 0.5 -0.692068 0.3798
523 1 0.966976 0.52362 0.5 0 0
524 1 0.850364 0.920645 0.5 -0.581776 -0.18225
525 1 0.763846 0.542013 0.5 0.15793 0.0972333
526 1 0.731242 0.147343 0.5 0.122277 -0.0836808
527 1 0.969066 0.545364 0.5 0.0631466 0.085718
528 1 0.98437 0.850279 0.5 0.48767 -0.554441
529 1 0.39388 0.0463671 0.5 -0.865205 -0.075421
530 1 0.714614 0.551783 0.5 0.255811 -0.118684
531 1 0.2055 0.473222 0.5 0.213228 -0.0418688
532 1 0.228382 0.598108 0.5 -0.342863 -0.144182
533 1 0.80433 0.351308 0.5 0.544672 0.17144
534 1 0.881307 0.605423 0.5 0 0
535 1 0.659386 0.710519 0.5 0.215346 -0.138685
536 1 0.898383 0.763016 0.5 0.391513 -0.196766
537 1 0.911125 0.699183 0.5 0.28502 -0.271491
538 1 0.390446 0.590253 0.5 -0.376737 0.826622
539 1 0.576877 0.0484126 0.5 0.377046 0.340447
540 1 0.35515 0.996121 0.5 0.0136019 -0.0850748
541 1 0.462044 0.119206 0.5 0.247165 0.401127
542 1 0.252015 0.519837 0.5 -0.372613 0.127746
543 1 0.09872 0.42654 0.5 -0.118645 -0.18751
544 1 0.583889 0.556796 0.5 -0.147121 -0.0469644
545 1 0.260468 0.229889 0.5 -0.179528 -0.0792589
546 1 0.691824 0.0920347 0.5 0 0
547 1 0.598665 0.0647331 0.5 0.487402 -0.37377
548 1 0.475254 0.0758632 0.5 -0.200685 0.201939
549 1 0.374372 0.0594741 0.5 0.453386 0.522868
550 1 0.0297983 0.635787 0.5 -0.52253 0.524035
551 1 0.689989 0.319393 0.5 0.531734 0.0656056
552 1 0.974512 0.437756 0.5 -0.0441698 0.484448
553 1 0.599593 0.892484 0.5 -0.149899 0.41882
554 1 0.640183 0.371979 0.5 -0.366482 -0.649894
555 1 0.0915788 0.432448 0.5 0.136158 -0.062724
556 1 0.544281 0.901572 0.5 0.515524 0.745389
557 1 0.747067 0.976846 0.5 0.783959 -0.355899
558 1 0.793074 0.787306 0.5 -0.301096 0.154628
559 1 0.42893 0.481039 0.5 -0.768338 0.413201
560 1 0.117288 0.562569 0.5 0.505268 0.349763
561 1 0.977045 0.558528 0.5 -0.317961 -0.278256
562 1 0.874191 0.301047 0.5 0.563635 0.512509
563 1 0.874057 0.848698 0.5 -0.0424767 0.182549
564 1 0.538958 0.843664 0.5 -0.389111 -0.183841
565 1 0.84989 0.941565 0.5 -0.693649 0.467625
566 1 0.802878 0.254001 0.5 -0.707822 -0.626581
567 1 0.51031 0.412329 0.5 0.289197 -0.359683
568 1 0.495494 0.246082 0.5 -0.116098 -0.593389
569 1 0.772018 0.113445 0.5 0.609933 -0.0602135
570 1 0.0139644 0.032724 0.5 -0.489114 0.424203
571 1 0.921517 0.555027 0.5 0 0
572 1 0.728181 0.866261 0.5 0.81554 0.206862
573 1 0.60174 0.774349 0.5 -0.768246 -0.392303
574 1 0.912768 0.392298 0.5 0.495233 -0.399387
575 1 0.044511 0.774577 0.5 0.184041 0.226458
576 1 0.358152 0.117686 0.5 0.13735 0.0142898
577 1 0.977669 0.803044 0.5 -0.559414 -0.124199
578 1 0.953312 0.664409 0.5 -0.135786 0.402868
579 1 0.267913 0.560543 0.5 -0.230271 0.0293119
580 1 0.965433 0.322305 0.5 0.132028 -0.444455
581 1 0.364015 0.491292 0.5 -0.141574 -0.617123
582 1 0.252649 0.673191 0.5 -0.100606 -0.300805
583 1 0.572051 0.685702 0.5 -0.120114 0.164881
584 1 0.826156 0.683838 0.5 0.967652 -0.0695964
585 1 0.688334 0.892995 0.5 0.200843 0.216733
586 1 0.972645 0.381613 0.5 0.0816315 0.346704
587 1 0.198842 0.625287 0.5 -0.645037 0.453085
588 1 0.747733 0.419706 0.5 -0.325131 -0.0908577
589 1 0.568096 0.889873 0.5 -0.329554 0.68575
590 1 0.909012 0.603164 0.5 0.382926 -0.15426
591 1 0.331258 0.884525 0.5 -0.617542 -0.231857
592 1 0.935197 0.6787 0.5 -0.228607 0.451651
593 1 0.620461 0.652834 0.5 -0.728282 0.509301
594 1 0.0790181 0.655026 0.5 0.0603563 -0.227344
595 1 0.0860401 0.945663 0.5 -0.823538 -0.165513
596 1 0.478066 0.79069 0.5 0.0844639 -0.405203
597 1 0.154858 0.41287 0.5 -0.248844 0.169899
598 1 0.179719 0.64922 0.5 -0.371108 0.513724
599 1 0.690081 0.815806 0.5 0.244052 -0.192495
600 1 0.794751 0.778084 0.5 0.174394 -0.360029
601 1 0.86887 0.30894 0.5 0.268929 -0.293262
602 1 0.966076 0.918275 0.5 -0.546363 -0.201017
603 1 0.894899 0.861176 0.5 -0.751481 -0.269604
604 1 0.821252 0.77174 0.5 0.0797625 -0.341188
605 1 0.887543 0.938657 0.5 0.674469 0.352635
606 1 0.533013 0.116983 0.5 -0.414337 0.457056
607 1 0.653026 0.0255222 0.5 -0.630992 0.0523502
608 1 0.606154 0.459217 0.5 0.398577 -0.571093
609 1 0.450519 0.184979 0.5 -0.739773 -0.188384
610 1 0.970012 0.61863 0.5 -0.274145 -0.40048
611 1 0.643344 0.813729 0.5 -0.249165 -0.142101
612 1 0.499821 0.947579 0.5 0.668794 0.671933
613 1 0.360761 0.00966863 0.5 -0.107332 -0.546931
614 1 0.687888 0.701639 0.5 0.143692 0.090916
615 1 0.439458 0.77922 0.5 0.431715 0.276675
616 1 0.737418 0.957932 0.5 0.172631 0.709494
617 1 0.0594104 0.0685739 0.5 0.00454345 -0.283204
618 1 0.305318 0.841369 0.5 -0.641227 -0.606992
619 1 0.843754 0.957749 0.5 -0.26116 -0.119169
620 1 0.5739 0.865407 0.5 -0.350537 -0.622475
621 1 0.891406 0.245698 0.5 0.282206 -0.380795
622 1 0.844637 0.974115 0.5 0.843492 -0.204529
623 1 0.0352043 0.28086 0.5 -0.390526 0.227279
624 1 0.545603 0.690053 0.5 -0.796748 -0.110479
625 1 0.590405 0.195024 0.5 -0.120507 0.0248183
626 1 0.402208 0.78682 0.5 -0.194031 0.518259
627 1 0.790222 0.520091 0.5 0.529813 -0.35729
628 1 0.615421 0.20314 0.5 -0.262049 0.0739213
629 1 0.922036 0.13642 0.5 0.298033 -0.553511
630 1 0.323303 0.385523 0.5 0.688784 -0.278173
631 1 0.000373819 0.394725 0.5 -0.856828 -0.0083426
632 1 0.658201 0.643301 0.5 0.0764873 -0.0905796
633 1 0.770197 0.409529 0.5 -0.394556 -0.448158
634 1 0.566998 0.827451 0.5 -0.112495 -0.149535
635 1 0.684113 0.403892 0.5 0.113438 0.0231398
636 1 0.133136 0.84227 0.5 0.343096 -0.774897