ITEM: TIMESTEP
0
ITEM: NUMBER OF ATOMS
10453
ITEM: BOX BOUNDS pp pp pp
-5.8359999999999999e+01 5.8359999999999999e+01
-5.8359999999999999e+01 5.8359999999999999e+01
-5.0000000000000000e-01 5.0000000000000000e-01
ITEM: ATOMS id type xs ys zs c_002[1] c_002[2]
1 1 0.129554 0.0772786 0.5 -0.544385 -0.680078
2 1 0.0744014 0.0779446 0.5 -0.188828 -0.879478
3 1 0.140946 0.0235631 0.5 -0.0172206 -0.913821
4 1 0.0730989 0.220356 0.5 -0.324735 -0.643081
5 1 0.127178 0.0865896 0.5 -0.375484 -0.803304
6 1 0.0912402 0.177163 0.5 -0.306642 -0.471982
7 1 0.0782424 0.189209 0.5 -0.48003 -0.85234
8 1 0.104725 0.103557 0.5 -0.353532 -0.363861
9 1 0.0864924 0.0639889 0.5 0.183807 -0.796766
10 1 0.0295468 0.0335625 0.5 -0.190552 -0.600053
11 1 0.0173261 0.0386395 0.5 -0.613356 -0.36936
12 1 0.0475804 0.246322 0.5 -0.771486 -0.470583
13 1 0.0669085 0.0316867 0.5 -0.307379 -0.842325
14 1 0.0489152 0.0756076 0.5 -0.0706814 -0.520639
15 1 0.0548072 0.0453305 0.5 -0.206487 -0.8952
16 1 0.0727003 0.210882 0.5 -0.207468 -0.45667
17 1 0.997968 0.0453549 0.5 0.10219 -0.957423
18 1 0.0938078 0.974537 0.5 -0.6572 -0.673383
19 1 0.0687864 0.0982853 0.5 0.171375 -0.76989
20 1 0.0257306 0.00913101 0.5 -0.409385 -0.536063
21 1 0.139733 0.109683 0.5 -0.420421 -0.698552
22 1 0.13458 0.131887 0.5 -0.0209109 -0.468403
23 1 0.151595 0.069148 0.5 -0.215484 -0.752189
24 1 0.0574469 0.147931 0.5 -0.277788 -0.72721
25 1 0.127801 0.0497147 0.5 -0.121165 -0.392249
26 1 0.0829807 0.169363 0.5 -0.306201 -0.828184
27 1 0.028036 0.0721036 0.5 -0.186169 -0.661528
28 1 0.117795 0.222474 0.5 0.0118062 -0.949226
29 1 0.12044 0.201717 0.5 -0.799696 -0.427963
30 1 0.0525284 0.00610706 0.5 -0.559085 -0.779771
31 1 0.10164 0.0779547 0.5 -0.233244 -0.879523
32 1 0.115028 0.101295 0.5 -0.378683 -0.654127
33 1 0.115804 0.139377 0.5 0.142453 -0.962296
34 1 0.0792896 0.131982 0.5 -0.113188 -0.775803
35 1 0.0913954 0.0804463 0.5 -0.341203 -0.709665
36 1 0.128564 0.161215 0.5 -0.597459 -0.527497
37 1 0.0518741 0.0161603 0.5 -0.573037 -0.641971
38 1 0.0502936 0.141034 0.5 -0.15679 -0.961049
39 1 0.0707218 0.182926 0.5 -0.114048 -0.850568
40 1 0.0722368 0.0895063 0.5 0.0579878 -0.669305
41 1 0.122919 0.106603 0.5 -0.56124 -0.719921
42 1 0.0358341 0.211174 0.5 -0.239981 -0.905657
43 1 0.140268 0.2081 0.5 -0.0312006 -0.356814
44 1 0.041099 0.0216329 0.5 -0.543924 -0.579053
45 1 0.0681892 0.19361 0.5 -0.0465543 -0.78293
46 1 0.0583079 0.109581 0.5 0.0411155 -0.823157
47 1 0.0746569 0.161319 0.5 -0.468214 -0.80741
48 1 0.107251 0.0942026 0.5 -0.627542 -0.643037
49 1 0.0870428 0.014172 0.5 -0.443352 -0.764923
50 1 0.0190646 0.0774613 0.5 -0.162322 -0.785395
51 1 0.0409787 0.143574 0.5 -0.0407216 -0.954252
52 1 0.0936105 0.154875 0.5 -0.644087 -0.71543
53 1 0.124765 0.00962915 0.5 -0.651826 -0.681023
54 1 0.0723417 0.0475846 0.5 -0.625319 -0.722354
55 1 0.110349 0.158726 0.5 -0.0015485 -0.966299
56 1 0.143076 0.223569 0.5 0.0925753 -0.817586
57 1 0.0885776 0.12995 0.5 -0.0693158 -0.71064
58 1 0.0161261 0.000917561 0.5 -0.670252 -0.643378
59 1 0.0585289 0.023344 0.5 -0.301135 -0.873985
60 1 0.0374999 0.153114 0.5 -0.345252 -0.640942
61 1 0.0993594 0.172183 0.5 -0.733941 -0.401284
62 1 0.075731 0.151058 0.5 -0.301511 -0.756386
63 1 0.127033 0.219748 0.5 -0.0609715 -0.952886
64 1 0.0645865 0.117508 0.5 -0.0786359 -0.885863
65 1 0.0828392 0.122121 0.5 0.186796 -0.885246
66 1 0.0863126 0.196096 0.5 -0.625868 -0.740141
67 1 0.040828 0.0586047 0.5 0.0193505 -0.901475
68 1 0.0850294 0.205427 0.5 -0.43421 -0.660408
69 1 0.127678 0.0377691 0.5 -0.494381 -0.623322
70 1 0.0855658 0.149374 0.5 -0.366586 -0.770796
71 1 0.0736579 0.256195 0.5 0.145217 -0.979021
72 1 0.0379594 0.116385 0.5 -0.32915 -0.849119
73 1 0.0960134 0.099777 0.5 -0.39378 -0.462582
74 1 0.00890483 0.0801035 0.5 0.109355 -0.986663
75 1 0.0579007 0.157377 0.5 -0.316513 -0.659748
76 1 0.0925037 0.119425 0.5 0.0728061 -0.951368
77 1 0.0574954 0.0341687 0.5 -0.278876 -0.852652
78 1 0.05517 0.120059 0.5 -0.163435 -0.914439
79 1 0.060807 0.136896 0.5 0.0194083 -0.86143
80 1 0.0956049 0.109927 0.5 -0.393986 -0.549701
81 1 0.0856459 0.24302 0.5 -0.316339 -0.824887
82 1 0.0369503 0.163244 0.5 -0.652021 -0.558131
83 1 0.111743 0.205749 0.5 -0.816444 -0.558294
84 1 0.0836019 0.0747237 0.5 -0.327644 -0.818629
85 1 0.0618882 0.0898278 0.5 0.454645 -0.800085
86 1 0.115985 0.053611 0.5 0.0835534 -0.887348
87 1 0.0592097 0.0989238 0.5 -0.0344799 -0.78927
88 1 0.0385166 0.0417634 0.5 0.232129 -0.656687
89 1 0.108452 0.177833 0.5 -0.294569 -0.468433
90 1 0.0240355 0.187633 0.5 -0.418516 -0.767362
91 1 0.0715478 0.989464 0.5 -0.581203 -0.63279
92 1 0.0253665 0.177671 0.5 -0.529159 -0.738746
93 1 0.091969 0.0414716 0.5 -0.24468 -0.831255
94 1 0.0214363 0.104003 0.5 -0.792683 -0.491724
95 1 0.076193 0.201009 0.5 -0.342066 -0.630538
96 1 0.0732632 0.171504 0.5 -0.227191 -0.88699
97 1 0.998051 0.217187 0.5 -0.319015 -0.774429
98 1 0.0207244 0.0295653 0.5 -0.387004 -0.512467
99 1 0.116 0.0901457 0.5 -0.624365 -0.702507
100 1 0.113859 0.185799 0.5 -0.356159 -0.420966
101 1 0.0454968 0.124112 0.5 -0.260219 -0.888305
102 1 0.0341646 0.0146843 0.5 -0.55397 -0.532145
103 1 0.123295 0.0607137 0.5 -0.0247237 -0.930686
104 1 0.0832395 0.254005 0.5 -0.245396 -0.891851
105 1 0.00893762 0.164292 0.5 -0.393682 -0.839626
106 1 0.0305375 0.109172 0.5 -0.602748 -0.656773
107 1 0.0128512 0.0985908 0.5 -0.211153 -0.46715
108 1 0.11747 0.175347 0.5 -0.49388 -0.642233
109 1 0.0844723 0.977744 0.5 -0.153535 -0.638295
110 1 0.0478611 0.15048 0.5 -0.302143 -0.695546
111 1 0.105579 0.0177503 0.5 -0.641413 -0.723085
112 1 0.0483395 0.160783 0.5 -0.410711 -0.66388
113 1 0.063202 0.127059 0.5 -0.211839 -0.916413
114 1 0.110989 0.215588 0.5 -0.393653 -0.71478
115 1 0.0356688 0.173743 0.5 -0.55337 -0.819554
116 1 0.0671809 0.155292 0.5 -0.52407 -0.712317
117 1 0.997091 0.177935 0.5 -0.338969 -0.824303
118 1 0.0434535 0.085972 0.5 -0.318529 -0.656149
119 1 0.0651393 0.0806299 0.5 0.168531 -0.860861
120 1 0.100114 0.126183 0.5 -0.228819 -0.784643
121 1 0.0120707 0.10811 0.5 -0.352698 -0.815822
122 1 0.093041 0.250397 0.5 -0.179071 -0.959967
123 1 0.0492383 0.188437 0.5 -0.191914 -0.732005
124 1 0.0965009 0.0602022 0.5 0.00821044 -0.758437
125 1 0.00851621 0.0432776 0.5 -0.437852 -0.609453
126 1 0.0480791 0.969145 0.5 -0.911365 -0.358106
127 1 0.0893869 0.00442181 0.5 -0.38724 -0.862311
128 1 0.107988 0.997125 0.5 -0.676837 -0.692236
129 1 0.119496 0.127579 0.5 -0.247248 -0.655588
130 1 0.0557129 0.251987 0.5 -0.572137 -0.754228
131 1 0.0994003 0.18206 0.5 -0.296223 -0.464313
132 1 0.0805611 0.98655 0.5 -0.0579164 -0.644029
133 1 0.0813049 0.997201 0.5 -0.433246 -0.680494
134 1 0.0633405 0.00244214 0.5 -0.377064 -0.582662
135 1 0.102986 0.150604 0.5 -0.268839 -0.776086
136 1 0.0251687 0.0541804 0.5 -0.393929 -0.750218
137 1 0.0313808 0.0236603 0.5 -0.323549 -0.570519
138 1 0.124047 0.230348 0.5 -0.0828687 -0.865591
139 1 0.0540964 0.996827 0.5 -0.621021 -0.559963
140 1 0.973273 0.244587 0.5 -0.140659 -0.886207
141 1 0.114882 0.233009 0.5 0.0283776 -0.893328
142 1 0.0967961 0.0111234 0.5 -0.569694 -0.780845
143 1 0.0628979 0.212558 0.5 -0.123781 -0.6638
144 1 0.0553012 0.0824377 0.5 0.315114 -0.914507
145 1 0.101896 0.979882 0.5 -0.448255 -0.719348
146 1 0.0899904 0.0924248 0.5 -0.166912 -0.79544
147 1 0.055591 0.166973 0.5 -0.0704715 -0.94032
148 1 0.103963 0.199661 0.5 -0.706628 -0.681153
149 1 0.0142507 0.266781 0.5 -0.184475 -0.845119
150 1 0.100207 0.0476311 0.5 0.00376447 -0.730695
151 1 0.1142 0.0237588 0.5 -0.510453 -0.73473
152 1 0.0352423 0.126481 0.5 -0.17501 -0.917608
153 1 0.10121 0.161718 0.5 -0.382715 -0.909324
154 1 0.0993491 0.991069 0.5 -0.509397 -0.740729
155 1 0.105884 0.0565542 0.5 0.237048 -0.765935
156 1 0.043375 0.180219 0.5 -0.0630253 -0.866564
157 1 0.026169 0.997747 0.5 -0.519686 -0.76467
158 1 0.0764146 0.246758 0.5 -0.279762 -0.736631
159 1 0.00327203 0.146031 0.5 0.0739528 -0.609655
160 1 0.0157312 0.0107516 0.5 -0.177158 -0.552561
161 1 0.0228432 0.0932597 0.5 -0.481095 -0.652489
162 1 0.991413 0.0273843 0.5 -0.385449 -0.698018
163 1 0.130338 0.0266665 0.5 -0.214867 -0.947514
164 1 0.105682 0.236492 0.5 -0.292118 -0.762899
165 1 0.0856138 0.0341352 0.5 -0.116046 -0.898088
166 1 0.0262416 0.0433112 0.5 -0.353935 -0.475081
167 1 0.122645 0.190099 0.5 -0.498296 -0.520618
168 1 0.0404463 0.0322127 0.5 -0.428795 -0.560095
169 1 0.144073 0.139717 0.5 -0.384276 -0.83667
170 1 0.028363 0.988322 0.5 -0.501801 -0.625367
171 1 0.11693 0.993937 0.5 -0.635654 -0.737303
172 1 0.0175614 0.171903 0.5 -0.369973 -0.869911
173 1 0.0709858 0.0571482 0.5 -0.0956425 -0.554354
174 1 0.0679625 0.0203146 0.5 -0.2653 -0.850821
175 1 0.0663193 0.249007 0.5 -0.154407 -0.887227
176 1 0.983213 0.203569 0.5 -0.0580012 -0.782372
177 1 0.0921085 0.212138 0.5 -0.154029 -0.903402
178 1 0.0530431 0.177091 0.5 -0.0923888 -0.972326
179 1 0.135705 0.17683 0.5 -0.0456039 -0.543438
180 1 0.141375 0.148814 0.5 -0.0186954 -0.9875
181 1 0.0823636 0.0440048 0.5 -0.278136 -0.895438
182 1 0.0476199 0.111667 0.5 -0.311507 -0.780105
183 1 0.996487 0.00653327 0.5 -0.263486 -0.629599
184 1 0.10299 0.0674686 0.5 -0.372211 -0.819425
185 1 0.034345 0.089852 0.5 -0.566393 -0.753755
186 1 0.028413 0.167689 0.5 -0.589798 -0.641479
187 1 0.118403 0.98443 0.5 -0.39443 -0.843211
188 1 0.135779 0.0436766 0.5 -0.386277 -0.512264
189 1 0.108215 0.08482 0.5 -0.542261 -0.70938
190 1 0.0122618 0.201202 0.5 -0.364837 -0.528841
191 1 0.0307724 0.195492 0.5 -0.152711 -0.879015
192 1 0.0948787 0.202854 0.5 -0.330141 -0.820796
193 1 0.0429293 0.13377 0.5 -0.230895 -0.957617
194 1 0.120785 0.0707232 0.5 -0.364938 -0.872952
195 1 0.0601019 0.231663 0.5 0.0960175 -0.919169
196 1 0.0499758 0.235374 0.5 -0.475898 -0.838057
197 1 0.0377644 0.0686662 0.5 -0.248395 -0.800888
198 1 0.107542 0.225583 0.5 -0.303064 -0.818827
199 1 0.0261427 0.0837717 0.5 -0.414101 -0.762286
200 1 0.07665 0.104995 0.5 -0.171029 -0.91957
201 1 0.0494362 0.026776 0.5 -0.650042 -0.545962
202 1 0.0940545 0.071236 0.5 -0.285476 -0.916859
203 1 0.107988 0.168231 0.5 -0.410189 -0.640542
204 1 0.0591337 0.0613439 0.5 -0.25444 -0.778982
205 1 0.103917 0.116618 0.5 -0.412707 -0.413792
206 1 0.127982 0.170882 0.5 -0.6763 -0.541544
207 1 0.0458105 0.170362 0.5 -0.288318 -0.934884
208 1 0.0745254 0.0371614 0.5 -0.26306 -0.80017
209 1 0.0356426 0.0789333 0.5 -0.429418 -0.799518
210 1 0.104792 0.190036 0.5 -0.311004 -0.623458
211 1 0.0518214 0.0920952 0.5 -0.204856 -0.85378
212 1 0.99069 0.209692 0.5 -0.0907194 -0.940053
213 1 0.0147448 0.181312 0.5 -0.472591 -0.7476
214 1 0.0674572 0.107793 0.5 -0.0483356 -0.93049
215 1 0.0675029 0.239503 0.5 -0.14733 -0.906318
216 1 0.0265573 0.130063 0.5 -0.269388 -0.832658
217 1 0.0221091 0.141419 0.5 -0.360046 -0.41968
218 1 0.0287921 0.157856 0.5 -0.614716 -0.593231
219 1 0.02982 0.243231 0.5 0.0260418 -0.915984
220 1 0.044587 0.99902 0.5 -0.57834 -0.558
221 1 0.0425837 0.0958683 0.5 -0.458308 -0.792082
222 1 0.0953592 0.193083 0.5 -0.340194 -0.785431
223 1 0.0214031 0.1983 0.5 -0.13571 -0.987285
224 1 0.0342116 0.183571 0.5 -0.315539 -0.744654
225 1 0.103874 0.0278361 0.5 -0.482358 -0.860711
226 1 0.133654 0.226634 0.5 -0.260152 -0.934826
227 1 0.0485603 0.0379689 0.5 -0.321638 -0.686972
228 1 0.0868937 0.024414 0.5 -0.704349 -0.633153
229 1 0.0911562 0.0510624 0.5 -0.137512 -0.662668
230 1 0.0727037 0.124038 0.5 -0.111494 -0.885406
231 1 0.0947763 0.031393 0.5 -0.358655 -0.866253
232 1 0.137422 0.0825334 0.5 -0.429614 -0.800469
233 1 0.0196687 0.160903 0.5 -0.474247 -0.812029
234 1 0.0219856 0.151019 0.5 -0.606535 -0.544541
235 1 0.0315608 0.0613336 0.5 0.10412 -0.947764
236 1 0.0400289 0.191169 0.5 -0.124057 -0.824371
237 1 0.125042 0.136689 0.5 -0.225068 -0.543352
238 1 0.987034 0.182335 0.5 -0.785071 -0.469941
239 1 0.118361 0.166051 0.5 -0.552704 -0.547178
240 1 0.118095 0.0800079 0.5 -0.412338 -0.77146
241 1 0.0602655 0.183961 0.5 -0.00961988 -0.836114
242 1 0.0155683 0.0871428 0.5 -0.0377083 -0.945452
243 1 0.129117 0.12381 0.5 -0.034878 -0.840288
244 1 0.0784688 0.142266 0.5 -0.226751 -0.874914
245 1 0.0806435 0.054379 0.5 0.00956033 -0.766217
246 1 0.102587 0.210208 0.5 -0.307077 -0.69461
247 1 0.00482308 0.0151777 0.5 -0.122697 -0.873456
248 1 0.0649545 0.165258 0.5 -0.133108 -0.865963
249 1 0.0163484 0.133683 0.5 -0.177382 -0.854073
250 1 0.0530365 0.130242 0.5 -0.350887 -0.920794
251 1 0.0723049 0.999671 0.5 -0.455342 -0.639303
252 1 0.0665241 0.20345 0.5 0.189572 -0.901897
253 1 0.0484758 0.0649952 0.5 -0.382467 -0.687625
254 1 0.105208 0.141495 0.5 -0.160191 -0.870983
255 1 0.078322 0.0281035 0.5 -0.42423 -0.596036
256 1 0.0425965 0.00965294 0.5 -0.730073 -0.560337
257 1 0.0849704 0.112225 0.5 -0.178473 -0.933269
258 1 0.131551 0.151421 0.5 -0.22268 -0.658961
259 1 0.0748772 0.114762 0.5 -0.163964 -0.968837
260 1 0.0338661 0.0498728 0.5 0.144478 -0.537096
261 1 0.0641431 0.0415232 0.5 -0.419761 -0.784837
262 1 0.0779042 0.0175643 0.5 -0.469696 -0.697541
263 1 0.0587356 0.0734227 0.5 -0.207723 -0.548993
264 1 0.0223351 0.0637859 0.5 -0.130075 -0.630217
265 1 0.0608037 0.0124455 0.5 -0.189548 -0.868895
266 1 0.0476225 0.198732 0.5 -0.408987 -0.879309
267 1 0.113665 0.148764 0.5 0.258172 -0.857787
268 1 0.0823164 0.216006 0.5 -0.561302 -0.642307
269 1 0.0876432 0.185947 0.5 -0.164751 -0.875008
270 1 0.125986 0.180402 0.5 -0.506334 -0.662961
271 1 0.150169 0.229991 0.5 0.0880911 -0.676548
272 1 0.00910666 0.117571 0.5 -0.556202 -0.676269
273 1 0.153345 0.0579927 0.5 -0.45192 -0.219469
274 1 0.11028 0.046179 0.5 0.010569 -0.555369
275 1 0.076234 0.0661653 0.5 0.356242 -0.733936
276 1 0.0701384 0.229863 0.5 0.317649 -0.929723
277 1 0.057085 0.241772 0.5 -0.352553 -0.801563
278 1 0.0841269 0.158889 0.5 -0.494253 -0.797682
279 1 0.0974145 0.13551 0.5 -0.479722 -0.762689
280 1 0.121112 0.0301507 0.5 -0.274078 -0.88726
281 1 0.08022 0.0953023 0.5 -0.0389657 -0.891308
282 1 0.996128 0.188384 0.5 -0.448018 -0.551275
283 1 0.0952918 0.145227 0.5 -0.627368 -0.734189
284 1 0.0523804 0.0544947 0.5 -0.0794905 -0.785352
285 1 0.0345194 0.0040305 0.5 -0.833008 -0.430638
286 1 0.0919678 0.165018 0.5 -0.606857 -0.703594
287 1 0.030953 0.146263 0.5 -0.375713 -0.660595
288 1 0.0873879 0.139465 0.5 -0.519548 -0.812802
289 1 0.120087 0.211768 0.5 -0.565732 -0.595819
290 1 0.0798415 0.00701052 0.5 -0.300955 -0.9101
291 1 0.0281999 0.205109 0.5 -0.280413 -0.925412
292 1 0.125821 0.000160905 0.5 -0.848521 -0.383601
293 1 0.136772 0.0335063 0.5 -0.140281 -0.76323
294 1 0.0707825 0.135874 0.5 -0.0833405 -0.778419
295 1 0.120405 0.116039 0.5 -0.431697 -0.469201
296 1 0.0883042 0.23373 0.5 -0.345913 -0.868267
297 1 0.012043 0.0222247 0.5 -0.0847104 -0.966982
298 1 0.112157 0.121827 0.5 -0.588989 -0.327167
299 1 0.0439703 0.0494978 0.5 0.216649 -0.549136
300 1 0.00265689 0.0246918 0.5 0.0302067 -0.970362
301 1 0.0557968 0.205965 0.5 -0.143626 -0.968823
302 1 0.108766 0.98689 0.5 -0.347748 -0.821648
303 1 0.00242704 0.0991113 0.5 0.0740424 -0.7918
304 1 0.0904108 0.994677 0.5 -0.470258 -0.819522
305 1 0.0415198 0.274983 0.5 -0.454519 -0.298613
306 1 0.0397021 0.105805 0.5 -0.435675 -0.849439
307 1 0.0825289 0.085467 0.5 -0.51218 -0.721378
308 1 0.0623909 0.174316 0.5 0.00616246 -0.985812
309 1 0.111586 0.110826 0.5 -0.428116 -0.297027
310 1 0.110553 0.0741875 0.5 -0.52359 -0.820037
311 1 0.0449809 0.989201 0.5 -0.47054 -0.598556
312 1 0.0806485 0.178903 0.5 -0.0688269 -0.923297
313 1 0.0666954 0.0679425 0.5 -0.0395788 -0.583772
314 1 0.0626757 0.0525228 0.5 -0.305513 -0.590925
315 1 0.0706928 0.0105442 0.5 -0.0907171 -0.905925
316 1 0.0109769 0.239626 0.5 -0.343154 -0.773273
317 1 0.149386 0.242589 0.5 -0.233245 -0.684188
318 1 0.0733277 0.978911 0.5 -0.104136 -0.864058
319 1 0.080246 0.2281 0.5 -0.121252 -0.708822
320 1 0.102024 0.0381537 0.5 -0.380402 -0.893378
321 1 0.0495357 0.102208 0.5 -0.376292 -0.919877
322 1 0.0422758 0.229413 0.5 -0.436176 -0.774781
323 1 0.958225 0.44969 0.5 -0.2236 -0.914938
324 1 0.0888795 0.407187 0.5 -0.246179 -0.87636
325 1 0.970184 0.483958 0.5 -0.603759 -0.527706
326 1 0.0527253 0.400969 0.5 -0.344901 -0.8031
327 1 0.127426 0.400653 0.5 0.00283275 -0.869208
328 1 0.0253532 0.400431 0.5 -0.146448 -0.613515
329 1 0.125496 0.365001 0.5 -0.695063 -0.564439
330 1 0.0926699 0.385792 0.5 -0.322627 -0.860394
331 1 0.0598286 0.454937 0.5 0.198279 -0.802813
332 1 0.0207496 0.333114 0.5 -0.548303 -0.509987
333 1 0.0868782 0.463675 0.5 -0.209448 -0.672637
334 1 0.0146911 0.30413 0.5 -0.602959 -0.479721
335 1 0.0655295 0.348063 0.5 -0.752852 -0.384119
336 1 0.00609965 0.366656 0.5 -0.288406 -0.730822
337 1 0.984392 0.469961 0.5 -0.0166483 -0.825207
338 1 0.0915737 0.396433 0.5 -0.60409 -0.72964
339 1 0.028894 0.338803 0.5 -0.267286 -0.75313
340 1 0.0542964 0.437447 0.5 -0.399668 -0.771806
341 1 0.0436413 0.218941 0.5 -0.376156 -0.755234
342 1 0.00104345 0.338631 0.5 -0.645258 -0.476382
343 1 0.102649 0.247853 0.5 -0.148269 -0.938022
344 1 0.0997179 0.356255 0.5 -0.210062 -0.609701
345 1 0.0794892 0.371262 0.5 -0.261434 -0.621515
346 1 0.143811 0.31928 0.5 -0.204009 -0.726185
347 1 0.140364 0.376786 0.5 -0.107292 -0.939191
348 1 0.119289 0.298262 0.5 -0.583499 -0.672308
349 1 0.12002 0.287496 0.5 -0.202672 -0.472566
350 1 0.0854251 0.378726 0.5 0.0464411 -0.896931
351 1 0.0883669 0.454085 0.5 -0.591263 -0.737814
352 1 0.962915 0.477666 0.5 -0.265418 -0.926087
353 1 0.0263164 0.437154 0.5 -0.0935355 -0.970324
354 1 0.0678829 0.376683 0.5 0.0549026 -0.771892
355 1 0.105553 0.32403 0.5 -0.690923 -0.701162
356 1 0.0211369 0.456527 0.5 -0.152475 -0.553051
357 1 0.0341183 0.261686 0.5 -0.0694918 -0.544554
358 1 0.0617785 0.30904 0.5 -0.583104 -0.691573
359 1 0.027918 0.476214 0.5 -0.73537 -0.163565
360 1 0.0754409 0.382672 0.5 -0.166643 -0.805609
361 1 0.111841 0.244834 0.5 -0.349411 -0.693311
362 1 0.0128341 0.373255 0.5 0.164843 -0.932802
363 1 0.981775 0.479254 0.5 -0.134077 -0.740322
364 1 0.120293 0.251009 0.5 -0.909996 -0.30546
365 1 0.0322931 0.367281 0.5 -0.0807905 -0.94637
366 1 0.11375 0.280573 0.5 -0.121519 -0.684417
367 1 0.0812675 0.312721 0.5 0.0525385 -0.794421
368 1 0.0752707 0.342006 0.5 -0.58418 -0.640166
369 1 0.0217919 0.419984 0.5 0.0200179 -0.835
370 1 0.0914562 0.299955 0.5 -0.3755 -0.691097
371 1 0.987245 0.36273 0.5 -0.427187 -0.681538
372 1 0.0491357 0.281968 0.5 -0.0645762 -0.614761
373 1 0.0958632 0.240137 0.5 -0.22463 -0.897727
374 1 0.0141388 0.400956 0.5 -0.195819 -0.644826
375 1 0.131562 0.334403 0.5 -0.26948 -0.731671
376 1 0.0280216 0.427559 0.5 0.118959 -0.887273
377 1 0.0675038 0.336218 0.5 -0.705938 -0.694567
378 1 0.119179 0.393513 0.5 -0.54012 -0.582956
379 1 0.00565303 0.3089 0.5 -0.563991 -0.604153
380 1 0.120651 0.241091 0.5 -0.382433 -0.580549
381 1 0.0498941 0.420348 0.5 -0.61059 -0.506547
382 1 0.0825612 0.389315 0.5 -0.451103 -0.786092
383 1 0.102164 0.296076 0.5 -0.412465 -0.814929
384 1 0.120653 0.383805 0.5 -0.539016 -0.72434
385 1 0.0577348 0.525199 0.5 -0.426965 -0.58512
386 1 0.988952 0.440485 0.5 -0.465421 -0.801253
387 1 0.0539103 0.263017 0.5 -0.323632 -0.734744
388 1 0.0322894 0.407209 0.5 -0.321925 -0.847664
389 1 0.00917562 0.347104 0.5 0.0222725 -0.8528
390 1 0.0762841 0.237063 0.5 -0.135986 -0.610501
391 1 0.0844626 0.426177 0.5 -0.225834 -0.933636
392 1 0.0371482 0.469768 0.5 -0.646913 -0.434415
393 1 0.121413 0.336875 0.5 -0.242032 -0.945798
394 1 0.959909 0.352733 0.5 -0.61984 -0.450094
395 1 0.0819764 0.436194 0.5 -0.110865 -0.961833
396 1 0.0572602 0.328841 0.5 -0.364918 -0.601791
397 1 0.123252 0.374169 0.5 -0.539511 -0.732972
398 1 0.0167182 0.439604 0.5 -0.143496 -0.908949
399 1 0.00692736 0.502452 0.5 -0.209083 -0.484815
400 1 0.0194028 0.244685 0.5 -0.219888 -0.702376
401 1 0.978755 0.489084 0.5 -0.331731 -0.571074
402 1 0.0338263 0.307564 0.5 -0.339163 -0.533024
403 1 0.0189609 0.381151 0.5 0.0195145 -0.757672
404 1 0.979322 0.368353 0.5 -0.0857246 -0.524539
405 1 0.0822463 0.475435 0.5 -0.0967235 -0.929631
406 1 0.978556 0.261499 0.5 -0.401577 -0.755509
407 1 0.0903716 0.22332 0.5 -0.460293 -0.775779
408 1 0.973106 0.425519 0.5 -0.191582 -0.896897
409 1 0.0638911 0.298094 0.5 -0.395829 -0.881307
410 1 0.999912 0.348661 0.5 -0.203081 -0.609184
411 1 0.0867031 0.416766 0.5 -0.285273 -0.921086
412 1 0.979665 0.345501 0.5 -0.616529 -0.538989
413 1 0.097007 0.413317 0.5 -0.386838 -0.867853
414 1 0.117856 0.308621 0.5 -0.17265 -0.734697
415 1 0.0229041 0.409532 0.5 -0.247872 -0.904018
416 1 0.989451 0.353229 0.5 -0.42719 -0.813072
417 1 0.0358353 0.298114 0.5 0.294871 -0.733972
418 1 0.0237601 0.447209 0.5 0.00519738 -0.951259
419 1 0.0240064 0.264682 0.5 0.171001 -0.829412
420 1 0.10535 0.372825 0.5 -0.237146 -0.900024
421 1 0.992432 0.246943 0.5 -0.295183 -0.440496
422 1 0.957051 0.459622 0.5 -0.41794 -0.760476
423 1 0.124744 0.278983 0.5 0.0177932 -0.674584
424 1 0.983405 0.384594 0.5 -0.416981 -0.781435
425 1 0.0979572 0.267959 0.5 -0.242411 -0.842053
426 1 0.07374 0.353067 0.5 -0.458483 -0.528196
427 1 0.00562645 0.356015 0.5 -0.0611804 -0.587403
428 1 0.054109 0.391012 0.5 -0.304244 -0.808345
429 1 0.130207 0.293997 0.5 -0.072458 -0.765861
430 1 0.0133564 0.412515 0.5 -0.333906 -0.873929
431 1 0.112792 0.378606 0.5 -0.534069 -0.75476
432 1 0.028822 0.378119 0.5 -0.143796 -0.844773
433 1 0.995135 0.369878 0.5 -0.60109 -0.666512
434 1 0.998021 0.399074 0.5 -0.560769 -0.687614
435 1 0.0927584 0.471648 0.5 0.0573413 -0.85478
436 1 0.0748295 0.468394 0.5 -0.0359758 -0.893894
437 1 0.0198234 0.342681 0.5 -0.316198 -0.784543
438 1 0.0479329 0.332958 0.5 -0.661695 -0.590255
439 1 0.0358689 0.43437 0.5 -0.306377 -0.830691
440 1 0.0457376 0.465882 0.5 -0.0951171 -0.854723
441 1 0.117218 0.271194 0.5 0.0163423 -0.882113
442 1 0.110241 0.389011 0.5 -0.659689 -0.515094
443 1 0.137496 0.398272 0.5 -0.12876 -0.868513
444 1 0.134671 0.360354 0.5 -0.668037 -0.66732
445 1 0.0641117 0.433598 0.5 -0.750063 -0.47457
446 1 0.0894129 0.357956 0.5 0.0603504 -0.76548
447 1 0.0469382 0.255892 0.5 -0.429578 -0.434499
448 1 0.998305 0.436619 0.5 -0.8233 -0.539896
449 1 0.102377 0.344542 0.5 -0.175535 -0.874662
450 1 0.947024 0.472265 0.5 0.106864 -0.721784
451 1 0.100719 0.392153 0.5 -0.652574 -0.722086
452 1 0.0759959 0.419448 0.5 -0.285579 -0.923983
453 1 0.0607474 0.319553 0.5 -0.335899 -0.732477
454 1 0.0789443 0.458795 0.5 -0.29672 -0.624473
455 1 0.00476106 0.466091 0.5 -0.135323 -0.886244
456 1 0.0186682 0.428934 0.5 0.103393 -0.919303
457 1 0.104499 0.420065 0.5 0.0562752 -0.978927
458 1 0.0359235 0.483605 0.5 -0.60466 -0.377496
459 1 0.0451989 0.352528 0.5 -0.118351 -0.486083
460 1 0.987645 0.449897 0.5 -0.508962 -0.735614
461 1 0.0325248 0.233157 0.5 -0.176506 -0.898913
462 1 0.0458493 0.305953 0.5 -0.403255 -0.712494
463 1 0.0343302 0.220549 0.5 -0.347287 -0.713839
464 1 0.0832644 0.291964 0.5 -0.246768 -0.854614
465 1 0.992857 0.418265 0.5 -0.180729 -0.922282
466 1 0.998699 0.388088 0.5 -0.0683475 -0.584851
467 1 0.950351 0.367412 0.5 -0.589917 -0.663986
468 1 0.0527465 0.473813 0.5 -0.175557 -0.843029
469 1 0.0386772 0.458826 0.5 -0.362088 -0.752796
470 1 0.0433852 0.490692 0.5 -0.635692 0.146305
471 1 0.0933927 0.289757 0.5 -0.340053 -0.827685
472 1 0.100816 0.257441 0.5 -0.162882 -0.958842
473 1 0.108222 0.264631 0.5 -0.124259 -0.907964
474 1 0.0367727 0.383482 0.5 -0.130748 -0.464965
475 1 0.0524331 0.446811 0.5 0.0722977 -0.875591
476 1 0.0928448 0.346843 0.5 0.0744984 -0.892803
477 1 0.0908253 0.260869 0.5 -0.427029 -0.824327
478 1 0.0685823 0.326687 0.5 -0.536748 -0.605978
479 1 0.0942751 0.422549 0.5 -0.117622 -0.917141
480 1 0.0429234 0.364467 0.5 -0.377639 -0.886816
481 1 0.127271 0.307051 0.5 0.227124 -0.930597
482 1 0.0784524 0.409413 0.5 -0.0696529 -0.875422
483 1 0.0582106 0.416057 0.5 -0.516437 -0.729923
484 1 0.0216481 0.322276 0.5 -0.234233 -0.58951
485 1 0.102083 0.382805 0.5 -0.242107 -0.83656
486 1 0.965275 0.466991 0.5 -0.275655 -0.939837
487 1 0.971883 0.340358 0.5 -0.463495 -0.718715
488 1 0.108026 0.361224 0.5 -0.49098 -0.68295
489 1 0.0616717 0.397185 0.5 -0.697975 -0.680814
490 1 0.0228074 0.370788 0.5 0.0145872 -0.896851
491 1 0.115235 0.368863 0.5 -0.42866 -0.798131
492 1 0.00998982 0.385703 0.5 0.0960783 -0.693721
493 1 0.107541 0.409079 0.5 -0.384142 -0.697125
494 1 0.0797182 0.360304 0.5 -0.128082 -0.523555
495 1 0.024698 0.36002 0.5 -0.426497 -0.752074
496 1 0.140846 0.233037 0.5 -0.124831 -0.953766
497 1 0.967572 0.457745 0.5 -0.354967 -0.754482
498 1 0.0566373 0.426897 0.5 -0.439901 -0.839531
499 1 0.0614793 0.368603 0.5 0.224642 -0.819392
500 1 0.0889352 0.272758 0.5 -0.0595673 -0.782349
501 1 0.0585628 0.280641 0.5 -0.0329689 -0.809535
502 1 0.00178157 0.475997 0.5 0.0894044 -0.940923
503 1 0.0515219 0.370811 0.5 -0.0374721 -0.551192
504 1 0.0138461 0.228825 0.5 -0.274001 -0.934177
505 1 0.0531503 0.312636 0.5 -0.312802 -0.88517
506 1 0.0347941 0.317601 0.5 -0.0746806 -0.393826
507 1 0.0822225 0.400458 0.5 -0.256664 -0.603452
508 1 0.0416426 0.403385 0.5 -0.0480411 -0.599997
509 1 0.101249 0.430036 0.5 0.0344542 -0.922209
510 1 0.0994811 0.219133 0.5 -0.299491 -0.85164
511 1 0.987849 0.402668 0.5 -0.310678 -0.905208
512 1 0.11595 0.443277 0.5 -0.490968 -0.726005
513 1 0.00355448 0.375678 0.5 -0.00804161 -0.672805
514 1 0.0802386 0.446427 0.5 -0.371111 -0.777736
515 1 0.109384 0.303099 0.5 -0.435895 -0.755243
516 1 0.0743648 0.428894 0.5 -0.483072 -0.787579
517 1 0.157948 0.381343 0.5 -0.283886 -0.820624
518 1 0.0819782 0.301506 0.5 -0.316335 -0.784014
519 1 0.978013 0.443148 0.5 -0.419714 -0.661299
520 1 0.033265 0.44377 0.5 -0.304648 -0.847477
521 1 0.0440844 0.315449 0.5 -0.0671876 -0.885517
522 1 0.989935 0.487209 0.5 0.039165 -0.913987
523 1 0.0714542 0.450965 0.5 -0.273688 -0.788586
524 1 0.99146 0.477863 0.5 0.218155 -0.84866
525 1 0.970947 0.436025 0.5 -0.432429 -0.838075
526 1 0.0451687 0.394294 0.5 0.124145 -0.640526
527 1 0.0950611 0.336933 0.5 -0.123156 -0.933881
528 1 0.99722 0.447444 0.5 -0.619219 -0.592833
529 1 0.0865683 0.329366 0.5 -0.238902 -0.906616
530 1 0.975819 0.37831 0.5 -0.203193 -0.819415
531 1 0.0469234 0.29579 0.5 -0.286032 -0.756604
532 1 0.0819682 0.265372 0.5 0.0316592 -0.616227
533 1 0.0971746 0.230693 0.5 -0.506475 -0.727951
534 1 0.114908 0.319733 0.5 -0.382045 -0.867402
535 1 0.112126 0.465112 0.5 -0.201651 -0.785706
536 1 0.0913453 0.433263 0.5 -0.156975 -0.966266
537 1 0.0776433 0.321377 0.5 -0.190021 -0.606223
538 1 0.958844 0.230707 0.5 0.0194031 -0.833765
539 1 0.0417512 0.449151 0.5 -0.0294673 -0.7654
540 1 0.0395415 0.240086 0.5 -0.440555 -0.821478
541 1 0.0170472 0.392152 0.5 0.0377412 -0.938945
542 1 0.114343 0.417368 0.5 -0.30966 -0.713383
543 1 0.00623766 0.394588 0.5 -0.320258 -0.662227
544 1 0.045462 0.500929 0.5 -0.331088 -0.139902
545 1 0.0754873 0.285908 0.5 -0.0712054 -0.69911
546 1 0.0716431 0.304357 0.5 -0.340592 -0.843217
547 1 0.0978483 0.450705 0.5 -0.450155 -0.878931
548 1 0.0415142 0.415341 0.5 -0.422255 -0.447845
549 1 0.0995462 0.441377 0.5 -0.443587 -0.796444
550 1 0.0717885 0.365986 0.5 -0.318637 -0.587111
551 1 0.948183 0.45246 0.5 -0.175177 -0.795092
552 1 0.0787872 0.274326 0.5 0.478693 -0.828064
553 1 0.0914983 0.310389 0.5 -0.218772 -0.600682
554 1 0.112018 0.428038 0.5 -0.0108943 -0.784616
555 1 0.947905 0.462741 0.5 -0.450074 -0.759435
556 1 0.045105 0.440198 0.5 -0.238093 -0.821744
557 1 0.0476525 0.3428 0.5 -0.333585 -0.727131
558 1 0.0264886 0.350569 0.5 -0.344511 -0.854059
559 1 0.0992124 0.305556 0.5 -0.444771 -0.627971
560 1 0.0863059 0.282691 0.5 0.0951724 -0.979037
561 1 0.988142 0.258182 0.5 -0.400913 -0.735977
562 1 0.0558169 0.464314 0.5 0.191039 -0.829882
563 1 0.0849755 0.338758 0.5 -0.325433 -0.804378
564 1 0.0634223 0.222711 0.5 -0.0578839 -0.668896
565 1 0.0353016 0.35782 0.5 -0.367374 -0.719225
566 1 0.0800347 0.484645 0.5 -0.410661 -0.767802
567 1 0.0109392 0.421652 0.5 0.0366041 -0.853987
568 1 0.0547357 0.301532 0.5 -0.525859 -0.742552
569 1 0.990233 0.392445 0.5 -0.280938 -0.812306
570 1 0.0611478 0.480558 0.5 -0.224096 -0.563959
571 1 0.119233 0.346214 0.5 -0.38109 -0.834322
572 1 0.0565376 0.292198 0.5 -0.330994 -0.777991
573 1 0.00294603 0.415734 0.5 -0.0976023 -0.901008
574 1 0.960935 0.365078 0.5 -0.665577 -0.359521
575 1 0.019779 0.482145 0.5 -0.230203 -0.519714
576 1 0.00630816 0.442424 0.5 -0.710337 -0.461466
577 1 0.040698 0.374605 0.5 -0.0378532 -0.889757
578 1 0.0335606 0.280984 0.5 -0.248343 -0.134304
579 1 0.1283 0.34332 0.5 -0.036929 -0.937318
580 1 0.103994 0.284971 0.5 -0.702333 -0.535372
581 1 0.0156269 0.314508 0.5 -0.164379 -0.509688
582 1 0.963503 0.332709 0.5 -0.324835 -0.940454
583 1 0.950663 0.441795 0.5 0.107409 -0.929416
584 1 0.0204177 0.470015 0.5 -0.611429 -0.345869
585 1 0.0955084 0.280425 0.5 -0.339734 -0.614248
586 1 0.0315603 0.41681 0.5 -0.0580718 -0.816001
587 1 0.0890678 0.368865 0.5 -0.206827 -0.807434
588 1 0.0712544 0.265255 0.5 0.0119599 -0.736243
589 1 0.117403 0.403627 0.5 -0.335864 -0.631417
590 1 0.0103587 0.483764 0.5 0.243648 -0.744051
591 1 0.0631701 0.25844 0.5 -0.336914 -0.763957
592 1 0.00873206 0.249297 0.5 -0.590274 -0.679959
593 1 0.985356 0.375378 0.5 -0.45321 -0.61051
594 1 0.0682887 0.461532 0.5 0.0578929 -0.93332
595 1 0.0176184 0.25503 0.5 -0.0372129 -0.566951
596 1 0.057508 0.340405 0.5 -0.561202 -0.583725
597 1 0.973178 0.47433 0.5 -0.235304 -0.756354
598 1 0.108747 0.35155 0.5 -0.507464 -0.632045
599 1 0.0514352 0.272627 0.5 -0.0566809 -0.952509
600 1 0.0140027 0.44899 0.5 -0.22129 -0.50753
601 1 0.0655193 0.422692 0.5 -0.47342 -0.765168
602 1 0.0699522 0.402808 0.5 -0.555843 -0.684824
603 1 0.137059 0.435984 0.5 0.00570964 -0.865697
604 1 0.128686 0.246725 0.5 -0.657565 -0.514253
605 1 0.0990426 0.402865 0.5 -0.617359 -0.762381
606 1 0.11128 0.255021 0.5 -0.460841 -0.661501
607 1 0.0362077 0.346588 0.5 -0.356001 -0.718837
608 1 0.0379931 0.252277 0.5 -0.194617 -0.399972
609 1 0.0694947 0.27512 0.5 0.0275147 -0.592703
610 1 0.0138301 0.463172 0.5 0.0865913 -0.455784
611 1 0.106873 0.484493 0.5 -0.504712 -0.771158
612 1 0.981714 0.288041 0.5 -0.185576 -0.865866
613 1 0.123092 0.422401 0.5 -0.328125 -0.604383
614 1 0.0161552 0.219395 0.5 -0.270579 -0.827188