ITEM: TIMESTEP
0
ITEM: NUMBER OF ATOMS
10000
ITEM: BOX BOUNDS pp pp pp
-5.8359999999999999e+01 5.8359999999999999e+01
-5.8359999999999999e+01 5.8359999999999999e+01
-5.0000000000000000e-01 5.0000000000000000e-01
ITEM: ATOMS id type xs ys zs c_002[1] c_002[2]
1 1 0.0128028 0.130631 0.5 -0.228874 0.216291
2 1 0.420696 0.216344 0.5 0.657781 0.00487508
3 1 0.294726 0.189297 0.5 0.860729 0.0270429
4 1 0.306942 0.259465 0.5 0.447217 -0.167975
5 1 0.223155 0.458388 0.5 0.429008 -0.171582
6 1 0.420293 0.152526 0.5 0.669465 0.661628
7 1 0.945971 0.530598 0.5 0.733966 -0.156892
8 1 0.384864 0.399024 0.5 0.432232 0.339554
9 1 0.0555495 0.298747 0.5 -0.249124 -0.223276
10 1 0.192183 0.14171 0.5 0.435864 -0.526972
11 1 0.134578 0.406433 0.5 -0.470664 -0.0122723
12 1 0.0931825 0.567361 0.5 -0.223853 -0.155058
13 1 0.226775 0.174088 0.5 0.323934 -0.319303
14 1 0.120849 0.0837049 0.5 0.48 -0.0597282
15 1 0.0967531 0.297058 0.5 0.512998 0.233033
16 1 0.374305 0.446353 0.5 0.573652 -0.528051
17 1 0.834773 0.857706 0.5 -0.111929 0.506883
18 1 0.330914 0.137694 0.5 0.513105 0.709424
19 1 0.399217 0.282363 0.5 0.965039 0.211453
20 1 0.291682 0.0294548 0.5 0.464927 -0.00999488
21 1 0.261084 0.347622 0.5 0.142981 -0.760899
22 1 0.334297 0.0740817 0.5 0.255392 0.255837
23 1 0.644336 0.0919028 0.5 0.610758 0.0122344
24 1 0.481837 0.187652 0.5 0.861826 0.131862
25 1 0.607304 0.191283 0.5 0.212275 0.542006
26 1 0.26547 0.384342 0.5 0.145334 -0.448791
27 1 0.377838 0.234331 0.5 -0.668255 -0.407763
28 1 0.36249 0.334728 0.5 0.130811 0.576603
29 1 0.132614 0.644101 0.5 0.376106 -0.873264
30 1 0.0438209 0.191057 0.5 -0.246719 -0.217645
31 1 0.0497696 0.241021 0.5 -0.654761 -0.438098
32 1 0.21323 0.851863 0.5 -0.531064 -0.353559
33 1 0.264943 0.107801 0.5 -0.325439 -0.791299
34 1 0.196154 0.275878 0.5 -0.639104 -0.384059
35 1 0.316537 0.127918 0.5 0.553464 0.400365
36 1 0.993773 0.435143 0.5 0.0320797 -0.93164
37 1 0.313251 0.143862 0.5 0.3993 0.64206
38 1 0.0166671 0.356202 0.5 -0.562958 -0.554714
39 1 0.998533 0.342488 0.5 -0.781005 -0.479737
40 1 0.384278 0.0783464 0.5 -0.192672 -0.591145
41 1 0.29162 0.0962892 0.5 0.376686 0.481983
42 1 0.29942 0.424161 0.5 0.45795 -0.839909
43 1 0.134423 0.137524 0.5 0.201785 0.536233
44 1 0.230506 0.916497 0.5 0.665575 0.372272
45 1 0.0650117 0.430416 0.5 0.459328 -0.705219
46 1 0.40324 0.479306 0.5 -0.055589 -0.153698
47 1 0.329887 0.311537 0.5 0.771054 0.270373
48 1 0.280019 0.303423 0.5 -0.394825 0.442264
49 1 0.339785 0.373603 0.5 0.039456 -0.666329
50 1 0.586538 0.0877298 0.5 0.35875 0.10654
51 1 0.346878 0.0593964 0.5 -0.512777 -0.13699
52 1 0.435067 0.710401 0.5 0.903637 -0.254062
53 1 0.419388 0.284271 0.5 0.68886 0.574324
54 1 0.0276737 0.219173 0.5 -0.915071 -0.246404
55 1 0.0152842 0.790964 0.5 -0.283533 -0.943865
56 1 0.48483 0.443389 0.5 0.228888 -0.0371928
57 1 0.882344 0.219594 0.5 -0.542186 -0.809289
58 1 0.345543 0.893506 0.5 0.857893 -0.326584
59 1 0.0368648 0.203878 0.5 -0.539625 0.0178234
60 1 0.323037 0.366879 0.5 0.829036 -0.471855
61 1 0.407848 0.198732 0.5 -0.0942634 -0.323373
62 1 0.198638 0.986949 0.5 0.968958 -0.0162555
63 1 0.00838358 0.503522 0.5 0.752986 -0.000729109
64 1 0.122742 0.308362 0.5 -0.945589 0.00832028
65 1 0.894437 0.15997 0.5 -0.707641 0.109613
66 1 0.253267 0.367109 0.5 0.121884 -0.693272
67 1 0.110922 0.378196 0.5 0.304131 -0.735973
68 1 0.0388285 0.445273 0.5 0.146877 -0.732357
69 1 0.288323 0.453912 0.5 0.631534 -0.591066
70 1 0.404869 0.141931 0.5 0.837092 0.0617229
71 1 0.920717 0.596458 0.5 0.519798 0.279249
72 1 0.225019 0.306901 0.5 -0.612476 0.305656
73 1 0.0603452 0.385018 0.5 0.152734 -0.871457
74 1 0.146847 0.0624106 0.5 0.863388 -0.316209
75 1 0.407472 0.628116 0.5 0.964165 0.138519
76 1 0.0288962 0.483974 0.5 -0.284901 -0.801257
77 1 0.128099 0.505145 0.5 0.641225 -0.621953
78 1 0.232607 0.289491 0.5 -0.312691 -0.0486265
79 1 0.117941 0.488619 0.5 0.912448 -0.147134
80 1 0.359561 0.311626 0.5 0.770161 0.173347
81 1 0.318354 0.449178 0.5 0.685153 -0.6367
82 1 0.113561 0.00944428 0.5 -0.0768737 -0.893557
83 1 0.775426 0.117994 0.5 0.449483 0.0701109
84 1 0.886181 0.935137 0.5 0.152813 -0.947734
85 1 0.148587 0.328194 0.5 -0.658574 -0.0109897
86 1 0.297736 0.00224876 0.5 0.917222 -0.376695
87 1 0.029166 0.710066 0.5 0.660711 -0.613778
88 1 0.0869674 0.359066 0.5 -0.26379 -0.732421
89 1 0.459997 0.249354 0.5 0.0260513 -0.439147
90 1 0.267154 0.510807 0.5 0.647859 -0.391404
91 1 0.0349988 0.0643875 0.5 0.367568 0.546936
92 1 0.160645 0.148118 0.5 0.413047 -0.435343
93 1 0.223008 0.898463 0.5 0.676418 0.5552
94 1 0.0747091 0.842778 0.5 0.163473 0.210479
95 1 0.259104 0.552963 0.5 -0.435976 -0.454585
96 1 0.391993 0.0962945 0.5 0.345364 0.859706
97 1 0.0362716 0.213924 0.5 -0.700689 -0.285593
98 1 0.714483 0.990112 0.5 0.196813 0.783524
99 1 0.308375 0.00197943 0.5 0.699387 -0.0878577
100 1 0.157352 0.362242 0.5 -0.252741 0.0116652
101 1 0.202928 0.0529225 0.5 0.733765 0.230375
102 1 0.813458 0.88302 0.5 0.401262 0.378781
103 1 0.214361 0.278743 0.5 -0.74481 -0.444072
104 1 0.927422 0.407644 0.5 -0.869769 0.413101
105 1 0.0851888 0.427836 0.5 0.337871 -0.862014
106 1 0.380533 0.388288 0.5 0.221749 0.503218
107 1 0.208842 0.490406 0.5 0.617087 -0.539887
108 1 0.206128 0.425964 0.5 0.392091 -0.801676
109 1 0.0765886 0.92915 0.5 -0.0275064 0.509455
110 1 0.180401 0.301262 0.5 -0.757517 0.11086
111 1 0.17722 0.105842 0.5 0.578569 0.110148
112 1 0.228301 0.108477 0.5 0.636596 0.251642
113 1 0.253486 0.331243 0.5 -0.783408 0.286427
114 1 0.012626 0.529674 0.5 0.517138 -0.382873
115 1 0.169482 0.388658 0.5 -0.0328028 -0.948352
116 1 0.167207 0.425846 0.5 -0.0564311 -0.963174
117 1 0.197949 0.300856 0.5 -0.88957 0.0642792
118 1 0.234885 0.32159 0.5 -0.958815 -0.0473063
119 1 0.954635 0.446027 0.5 -0.0528111 -0.942591
120 1 0.0483573 0.260501 0.5 -0.557698 -0.0235989
121 1 0.213842 0.11654 0.5 0.550966 -0.164231
122 1 0.229638 0.585749 0.5 0.132094 -0.819466
123 1 0.206052 0.324757 0.5 -0.858497 0.0891223
124 1 0.0881486 0.417938 0.5 0.627535 -0.500389
125 1 0.151288 0.104165 0.5 0.867116 0.069636
126 1 0.133057 0.00861893 0.5 0.545793 -0.0650734
127 1 0.193381 0.866973 0.5 -0.129265 -0.365037
128 1 0.311907 0.915349 0.5 -0.0829122 -0.497165
129 1 0.373009 0.337428 0.5 0.212353 0.398601
130 1 0.140379 0.870677 0.5 0.51059 -0.274244
131 1 0.298828 0.31371 0.5 0.636613 0.33836
132 1 0.368026 0.419119 0.5 0.207576 -0.621022
133 1 0.102446 0.137254 0.5 -0.166715 -0.113496
134 1 0.781516 0.924832 0.5 0.0584303 -0.0232382
135 1 0.286069 0.407935 0.5 0.526572 -0.621053
136 1 0.997938 0.964693 0.5 0 0
137 1 0.0716428 0.155985 0.5 0.294985 0.198244
138 1 0.409448 0.358313 0.5 0.933903 0.274447
139 1 0.233274 0.212856 0.5 -0.112702 -0.328885
140 1 0.0259934 0.456784 0.5 -0.256203 -0.922853
141 1 0.107898 0.575764 0.5 -0.514444 -0.155677
142 1 0.208432 0.0214313 0.5 0.152869 0.0588483
143 1 0.960072 0.521979 0.5 0.499206 -0.0275825
144 1 0.39803 0.204421 0.5 -0.508844 0.0362634
145 1 0.101322 0.274978 0.5 0.206135 -0.203346
146 1 0.185073 0.20575 0.5 0.636913 0.573812
147 1 0.0407118 0.285608 0.5 -0.151409 0.0550279
148 1 0.813259 0.626038 0.5 0.446722 0.354398
149 1 0.179219 0.412476 0.5 -0.0592384 -0.442193
150 1 0.0296957 0.520199 0.5 0.608049 0.523944
151 1 0.270917 0.331252 0.5 -0.585672 -0.126434
152 1 0.699748 0.10947 0.5 -0.567744 0.649508
153 1 0.391532 0.419032 0.5 -0.323873 0.487932
154 1 0.931192 0.99139 0.5 0.0912683 0.103284
155 1 0.168953 0.337857 0.5 -0.294112 -0.434332
156 1 0.0632605 0.457771 0.5 0.229592 -0.768505
157 1 0.937006 0.899361 0.5 -0.586456 -0.0548757
158 1 0.0874313 0.230123 0.5 -0.377572 -0.470491
159 1 0.641127 0.0211791 0.5 0.792756 -0.378764
160 1 0.354364 0.0271756 0.5 -0.546602 -0.0342479
161 1 0.206922 0.262346 0.5 -0.66919 -0.492619
162 1 0.927752 0.764622 0.5 -0.217162 -0.923682
163 1 0.0288792 0.017609 0.5 -0.749464 0.0997815
164 1 0.282554 0.243391 0.5 0.550834 -0.672418
165 1 0.245252 0.190465 0.5 0.179391 -0.205685
166 1 0.968443 0.232374 0.5 -0.509949 0.13529
167 1 0.855357 0.2782 0.5 -0.177469 0.0646005
168 1 0.0507305 0.282431 0.5 -0.642659 -0.338095
169 1 0.331279 0.166149 0.5 0.77351 0.509061
170 1 0.273438 0.141845 0.5 0.953897 0.0339129
171 1 0.991553 0.201573 0.5 -0.13296 -0.68254
172 1 0.00060786 0.441853 0.5 0.200127 -0.611603
173 1 0.36134 0.139777 0.5 0.697338 0.603698
174 1 0.334951 0.303267 0.5 0.940459 0.0772505
175 1 0.368512 0.159764 0.5 0.813001 -0.0477515
176 1 0.757091 0.99762 0.5 -0.0997908 0.871577
177 1 0.258192 0.465041 0.5 -0.0409853 -0.148444
178 1 0.958522 0.225567 0.5 -0.657049 0.0553411
179 1 0.226214 0.925828 0.5 0.801906 -0.0773254
180 1 0.0158237 0.366735 0.5 -0.635393 -0.285008
181 1 0.312691 0.957893 0.5 0.710034 -0.423048
182 1 0.323327 0.411382 0.5 0.440846 -0.771918
183 1 0.880259 0.79579 0.5 -0.218553 -0.746457
184 1 0.922996 0.201423 0.5 0.444136 0.766222
185 1 0.347686 0.442067 0.5 0.392772 -0.572084
186 1 0.196767 0.595165 0.5 -0.116461 -0.490394
187 1 0.223987 0.295029 0.5 -0.94114 0.0412345
188 1 0.251384 0.0931758 0.5 0.892326 -0.163307
189 1 0.225844 0.185337 0.5 0.10737 -0.469744
190 1 0.0400519 0.348988 0.5 0.100456 0.636666
191 1 0.010146 0.255189 0.5 -0.235839 -0.343192
192 1 0.181367 0.310847 0.5 -0.516401 -0.162505
193 1 0.180113 0.126179 0.5 0.851853 -0.482694
194 1 0.108062 0.0361638 0.5 0.427812 0.848169
195 1 0.183111 0.362605 0.5 0.255933 -0.535668
196 1 0.371189 0.456057 0.5 0.178155 -0.96765
197 1 0.986301 0.228301 0.5 -0.304847 0.507262
198 1 0.396714 0.564255 0.5 0.715952 -0.389265
199 1 0.0542242 0.326165 0.5 -0.238722 0.375729
200 1 0.401626 0.161921 0.5 0.826069 0.316814
201 1 0.124273 0.176911 0.5 -0.323191 0.399179
202 1 0.976325 0.995698 0.5 0.196738 0.615777
203 1 0.539489 0.103762 0.5 0.783355 -0.244207
204 1 0.961085 0.139657 0.5 0.649785 -0.203544
205 1 0.860391 0.449251 0.5 -0.526207 -0.114877
206 1 0.122235 0.394044 0.5 0.276907 0.341003
207 1 0.167869 0.240541 0.5 -0.349095 0.0373586
208 1 0.328974 0.00221559 0.5 0.532234 -0.747005
209 1 0.429797 0.153436 0.5 0.747393 0.59125
210 1 0.148631 0.318592 0.5 -0.411897 -0.0708137
211 1 0.270653 0.224179 0.5 0.235023 0.648226
212 1 0.384105 0.290514 0.5 0.567771 -0.0800203
213 1 0.700134 0.384419 0.5 0.664573 0.563696
214 1 0.797824 0.197129 0.5 -0.565078 -0.228604
215 1 0.0901694 0.200266 0.5 -0.771257 0.350507
216 1 0.0678522 0.324069 0.5 -0.278282 -0.781293
217 1 0.338106 0.204043 0.5 -0.0440829 0.252739
218 1 0.741572 0.0404491 0.5 -0.403736 0.542298
219 1 0.0335853 0.356835 0.5 -0.119918 0.214001
220 1 0.340437 0.0185051 0.5 0.677628 -0.244606
221 1 0.198132 0.585013 0.5 0.0421017 0.0278009
222 1 0.1529 0.283651 0.5 -0.808235 -0.400477
223 1 0.978219 0.508658 0.5 -0.00441307 -0.981439
224 1 0.030354 0.259981 0.5 -0.399187 -0.662884
225 1 0.140988 0.375525 0.5 0.646676 -0.161576
226 1 0.179976 0.266733 0.5 -0.727438 0.259362
227 1 0.346031 0.302555 0.5 0.915866 -0.0643012
228 1 0.90126 0.0738054 0.5 -0.705245 0.576138
229 1 0.463741 0.166579 0.5 0.800155 0.46325
230 1 0.0584942 0.120302 0.5 0.807854 -0.254732
231 1 0.304798 0.887647 0.5 -0.128508 -0.075718
232 1 0.559329 0.1797 0.5 0.895563 -0.0159785
233 1 0.950052 0.286496 0.5 -0.822801 -0.43402
234 1 0.999084 0.0505316 0.5 0.0873633 -0.573911
235 1 0.928838 0.151147 0.5 -0.366015 -0.324715
236 1 0.262062 0.260288 0.5 0.0641261 0.176937
237 1 0.243312 0.270292 0.5 0.116837 -0.549443
238 1 0.212053 0.367297 0.5 0.437845 -0.371452
239 1 0.196402 0.455442 0.5 0.571169 -0.544432
240 1 0.333941 0.284833 0.5 0.816674 0.0837516
241 1 0.288993 0.396318 0.5 0.459795 -0.603803
242 1 0.10639 0.472381 0.5 0.767834 -0.552241
243 1 0.486698 0.0490622 0.5 0.0725419 -0.932871
244 1 0.894801 0.493986 0.5 0.404997 -0.721902
245 1 0.622117 0.0235529 0.5 0.671506 -0.332283
246 1 0.0123036 0.561772 0.5 -0.44736 0.707736
247 1 0.05791 0.16726 0.5 0.534588 -0.759444
248 1 0.859473 0.371101 0.5 0.700447 0.527342
249 1 0.235414 0.262361 0.5 -0.454559 -0.606369
250 1 0.325055 0.231342 0.5 -0.232858 -0.153996
251 1 0.975489 0.262608 0.5 0.533292 0.113809
252 1 0.28945 0.425946 0.5 0.272416 -0.861281
253 1 0.230885 0.374939 0.5 0.0425083 -0.943984
254 1 0.988496 0.299206 0.5 -0.494412 -0.631322
255 1 0.184195 0.0696406 0.5 0.893377 0.152155
256 1 0.126602 0.982036 0.5 0.276292 -0.852729
257 1 0.411154 0.133099 0.5 0.86064 -0.0605784
258 1 0.938817 0.621186 0.5 0.799133 0.261605
259 1 0.169743 0.305192 0.5 -0.828647 -0.0853349
260 1 0.812025 0.020785 0.5 0.885308 0.250339
261 1 0.295959 0.973942 0.5 0.0934852 0.195843
262 1 0.130605 0.28161 0.5 -0.603758 0.0419324
263 1 0.246323 0.488264 0.5 0.0221191 0.263212
264 1 0.132143 0.168701 0.5 0.0769884 0.612414
265 1 0.112051 0.398784 0.5 -0.085467 0.516141
266 1 0.215264 0.234641 0.5 -0.159838 -0.498323
267 1 0.921863 0.280165 0.5 -0.711304 -0.407978
268 1 0.227723 0.90654 0.5 0.603737 0.624474
269 1 0.234186 0.509326 0.5 -0.442848 -0.22317
270 1 0.127773 0.196611 0.5 0.0939876 0.178818
271 1 0.259263 0.427776 0.5 0.0287513 0.0101899
272 1 0.856358 0.0487664 0.5 0.233145 -0.598531
273 1 0.228611 0.0905626 0.5 0.896303 -0.0155236
274 1 0.309772 0.104018 0.5 -0.372135 -0.559542
275 1 0.270335 0.463388 0.5 0.480475 -0.643933
276 1 0.998849 0.521922 0.5 0.273532 0.459826
277 1 0.0979344 0.312895 0.5 -0.539605 -0.503552
278 1 0.387394 0.230227 0.5 -0.653211 -0.378496
279 1 0.382766 0.0379766 0.5 -0.632672 -0.0511246
280 1 0.160945 0.301367 0.5 -0.787747 0.0912879
281 1 0.147883 0.605433 0.5 0.397017 -0.384612
282 1 0.787644 0.101599 0.5 0.538943 0.494102
283 1 0.0506374 0.790292 0.5 0.199379 -0.854314
284 1 0.244536 0.23692 0.5 0.166978 -0.365566
285 1 0.337337 0.355606 0.5 0.716639 -0.629411
286 1 0.179021 0.254787 0.5 -0.802953 0.366734
287 1 0.244431 0.337289 0.5 -0.762086 0.180887
288 1 0.352782 0.432293 0.5 0.75401 -0.44364
289 1 0.502652 0.631529 0.5 0.931197 -0.146641
290 1 0.97726 0.0780035 0.5 -0.135825 -0.661969
291 1 0.0248067 0.362006 0.5 -0.816774 0.0674249
292 1 0.0455443 0.810426 0.5 -0.148184 -0.879255
293 1 0.00141904 0.200223 0.5 0.1915 -0.78901
294 1 0.0288434 0.559588 0.5 -0.281197 0.733721
295 1 0.337295 0.5117 0.5 0.714114 -0.635043
296 1 0.0752259 0.287845 0.5 -0.401786 -0.15183
297 1 0.142149 0.130463 0.5 0.00784006 0.777615
298 1 0.218479 0.108096 0.5 0.837035 0.0173449
299 1 0.145454 0.111953 0.5 0.830201 -0.135889
300 1 0.190494 0.498638 0.5 0.492491 -0.245694
301 1 0.430955 0.453783 0.5 0.795894 -0.115699
302 1 0.26395 0.188498 0.5 0.134888 -0.949716
303 1 0.384014 0.99738 0.5 0.942576 -0.199169
304 1 0.215927 0.330433 0.5 -0.91515 -0.013272
305 1 0.934476 0.528714 0.5 0.722631 -0.220326
306 1 0.392196 0.0203227 0.5 -0.556114 0.317911
307 1 0.474627 0.362174 0.5 0.33482 0.451929
308 1 0.87752 0.161013 0.5 -0.803776 -0.0823978
309 1 0.271435 0.321777 0.5 -0.825477 0.0268816
310 1 0.0166654 0.609851 0.5 0.526634 -0.620703
311 1 0.741426 0.978601 0.5 0.232632 0.608384
312 1 0.486919 0.503679 0.5 0.803251 0.00320764
313 1 0.981788 0.0573438 0.5 -0.395212 -0.317099
314 1 0.407913 0.0911878 0.5 0.180571 0.347484
315 1 0.324348 0.647814 0.5 0.629136 -0.637644
316 1 0.0440035 0.64604 0.5 0.0133687 -0.0503685
317 1 0.52848 0.4422 0.5 0.247586 -0.06551
318 1 0.732821 0.381959 0.5 0.0360248 -0.61601
319 1 0.461833 0.41005 0.5 0.612596 0.618208
320 1 0.225291 0.503024 0.5 -0.546223 -0.0839783
321 1 0.492934 0.336932 0.5 0.881827 -0.0193416
322 1 0.329477 0.293336 0.5 0.686103 -0.236731
323 1 0.605923 0.391792 0.5 0.680691 -0.0445464
324 1 0.771018 0.640756 0.5 0.231593 0.399879
325 1 0.555434 0.496691 0.5 0.655261 0.439116
326 1 0.460945 0.629984 0.5 0.701595 0.455716
327 1 0.133287 0.271485 0.5 -0.768602 -0.314908
328 1 0.148047 0.383686 0.5 0.320032 -0.604056
329 1 0.0894795 0.652845 0.5 0.0374771 -0.428009
330 1 0.916174 0.453316 0.5 0.0461758 0.35018
331 1 0.130215 0.551649 0.5 0.39134 -0.264223
332 1 0.186741 0.62446 0.5 -0.134971 -0.977251
333 1 0.848809 0.436865 0.5 -0.0975263 0.497926
334 1 0.0128025 0.674521 0.5 0.770899 -0.202156
335 1 0.315173 0.209882 0.5 0.511386 -0.664462
336 1 0.497579 0.301835 0.5 0.642959 0.489783
337 1 0.0730254 0.371496 0.5 -0.41031 -0.737809
338 1 0.97995 0.617892 0.5 -0.168006 -0.303891
339 1 0.278979 0.15046 0.5 0.436488 0.252677
340 1 0.123202 0.187265 0.5 -0.0767413 -0.127028
341 1 0.0153575 0.469589 0.5 0.0905425 -0.787795
342 1 0.048738 0.828912 0.5 -0.430751 -0.440645
343 1 0.148248 0.739836 0.5 -0.780365 0.105257
344 1 0.205283 0.386065 0.5 0.000957619 -0.396767
345 1 0.00574769 0.227911 0.5 -0.62299 -0.17975
346 1 0.285378 0.189139 0.5 0.814439 0.04348
347 1 0.437528 0.350551 0.5 0.654949 0.257824
348 1 0.26986 0.60596 0.5 0.261943 -0.0426457
349 1 0.864003 0.274331 0.5 -0.713155 0.131058
350 1 0.646532 0.013746 0.5 0.656302 -0.065417
351 1 0.927491 0.358613 0.5 0.0250314 -0.124479
352 1 0.984591 0.427393 0.5 0.0817247 -0.463791
353 1 0.355373 0.537515 0.5 0.234008 -0.838476
354 1 0.197552 0.319931 0.5 -0.665461 0.24941
355 1 0.873367 0.586435 0.5 0.469674 0.0280306
356 1 0.40045 0.309402 0.5 0.679518 0.623683
357 1 0.862864 0.641188 0.5 0.94623 -0.159854
358 1 0.393568 0.573191 0.5 0.0995307 -0.656343
359 1 0.648943 0.221733 0.5 -0.113653 0.0374588
360 1 0.437299 0.445719 0.5 0.537956 -0.324182
361 1 0.133345 0.477758 0.5 0.877174 -0.166164
362 1 0.40034 0.517588 0.5 0.0708952 -0.854312
363 1 0.852602 0.509335 0.5 -0.574304 0.578298
364 1 0.965103 0.352674 0.5 -0.380137 -0.551812
365 1 0.230738 0.412163 0.5 0.0370972 -0.113807
366 1 0.133834 0.495657 0.5 0.697939 -0.578384
367 1 0.526396 0.174064 0.5 0.579511 0.604125
368 1 0.0629632 0.576013 0.5 0.531885 -0.541766
369 1 0.0950618 0.23767 0.5 -0.404709 -0.613157
370 1 0.176057 0.548421 0.5 0.898449 0.014203
371 1 0.798933 0.282832 0.5 -0.543758 -0.0544476
372 1 0.246848 0.387051 0.5 -0.42825 0.112608
373 1 0.740279 0.19294 0.5 -0.235476 -0.681898
374 1 0.358845 0.470466 0.5 -0.344758 -0.815044
375 1 0.217059 0.385478 0.5 0.30258 -0.601542
376 1 0.266982 0.179005 0.5 0.564511 -0.461274
377 1 0.99857 0.331235 0.5 -0.655684 -0.626613
378 1 0.160105 0.320515 0.5 -0.646345 -0.0647397
379 1 0.0531311 0.595355 0.5 0.720238 -0.0860886
380 1 0.470001 0.494101 0.5 0.651348 0.386849
381 1 0.0432601 0.358809 0.5 0.322737 0.919815
382 1 0.91162 0.648751 0.5 0.414544 -0.0473664
383 1 0.867572 0.336952 0.5 0.132104 0.0838531
384 1 0.949913 0.2674 0.5 -0.16737 -0.0839335
385 1 0.367358 0.505873 0.5 0.342047 -0.797503
386 1 0.227817 0.46852 0.5 0.620668 -0.22586
387 1 0.859632 0.41957 0.5 0.542595 -0.531233
388 1 0.229163 0.0247589 0.5 0.843216 0.113843
389 1 0.822127 0.589979 0.5 0.705715 0.246006
390 1 0.996754 0.304659 0.5 -0.252066 -0.704972
391 1 0.859957 0.705932 0.5 0.851139 0.460909
392 1 0.908526 0.36211 0.5 0.533719 -0.0304678
393 1 0.919825 0.500426 0.5 0.821759 0.0562299
394 1 0.059164 0.267086 0.5 -0.925872 -0.249333
395 1 0.681404 0.41029 0.5 0.866392 0.218228
396 1 0.942391 0.647072 0.5 0.522665 0.593334
397 1 0.750298 0.650895 0.5 0.0583447 -0.632158
398 1 0.975283 0.348973 0.5 -0.173433 -0.61457
399 1 0.0735981 0.456188 0.5 0.79453 -0.586508
400 1 0.327167 0.387373 0.5 -0.49202 -0.306989
401 1 0.105331 0.245686 0.5 -0.650175 -0.415673
402 1 0.0450703 0.332777 0.5 -0.413077 0.83086
403 1 0.911196 0.539416 0.5 0.634479 -0.490135
404 1 0.00877826 0.603804 0.5 0.228892 -0.595003
405 1 0.606734 0.520297 0.5 0.400204 0.485382
406 1 0.287342 0.378964 0.5 0.894891 -0.165401
407 1 0.0428317 0.433958 0.5 0.248662 -0.91349
408 1 0.0376524 0.552338 0.5 -0.377543 0.23581
409 1 0.0769539 0.516537 0.5 0.412498 -0.0305211
410 1 0.961325 0.574737 0.5 0.85595 -0.11921
411 1 0.153534 0.583024 0.5 0.343649 -0.87759
412 1 0.811449 0.508838 0.5 -0.64781 -0.216878
413 1 0.258533 0.284492 0.5 -0.754712 0.359971
414 1 0.909103 0.52193 0.5 0.751799 -0.0755343
415 1 0.388578 0.409417 0.5 -0.194735 0.670557
416 1 0.00881131 0.348414 0.5 -0.525326 -0.37648
417 1 0.0404302 0.312254 0.5 0.463525 0.838675
418 1 0.0514902 0.414941 0.5 0.207859 -0.542479
419 1 0.508797 0.675359 0.5 0.115746 -0.239342
420 1 0.146946 0.513844 0.5 0.681229 -0.3006
421 1 0.51827 0.367144 0.5 0.174202 -0.301174
422 1 0.128558 0.569586 0.5 0.637066 -0.229245
423 1 0.235283 0.431785 0.5 0.504651 0.787885
424 1 0.170674 0.739873 0.5 0.640399 -0.134786
425 1 0.282653 0.494155 0.5 -0.385171 0.585362
426 1 0.155973 0.350496 0.5 -0.116435 -0.327415
427 1 0.096064 0.630966 0.5 0.61271 -0.346466
428 1 0.278636 0.674476 0.5 -0.17133 0.0460287
429 1 0.344879 0.387898 0.5 -0.726992 -0.393207
430 1 0.0739976 0.129173 0.5 0.477769 0.491448
431 1 0.312728 0.439686 0.5 0.478992 -0.739352
432 1 0.936358 0.602542 0.5 0.551135 -0.455837
433 1 0.29426 0.142585 0.5 0.948493 0.234377
434 1 0.838109 0.528178 0.5 0.534278 -0.697866
435 1 0.654885 0.473534 0.5 0.724784 0.547809
436 1 0.223804 0.403205 0.5 0.735423 -0.58463
437 1 0.325352 0.428523 0.5 0.537235 -0.775096
438 1 0.203408 0.406117 0.5 -0.267166 -0.633704
439 1 0.123858 0.404709 0.5 -0.455713 0.327136
440 1 0.287805 0.570786 0.5 0.490054 0.70161
441 1 0.426317 0.463734 0.5 0.635421 -0.702952
442 1 0.04654 0.587905 0.5 0.687494 -0.370886
443 1 0.037933 0.399941 0.5 0.147432 -0.562418
444 1 0.445765 0.414953 0.5 0.168153 0.327505
445 1 0.454123 0.540056 0.5 -0.151543 0.624363
446 1 0.210433 0.650225 0.5 0.357934 -0.51575
447 1 0.941205 0.290618 0.5 -0.850186 -0.0206593
448 1 0.223026 0.666163 0.5 0.378103 -0.833405
449 1 0.0126909 0.386328 0.5 0.500111 -0.73702
450 1 0.0204197 0.518939 0.5 0.500755 0.212746
451 1 0.343678 0.538352 0.5 0.202676 -0.702487
452 1 0.868271 0.67938 0.5 0.569236 0.699756
453 1 0.883397 0.52227 0.5 -0.222596 -0.21561
454 1 0.367364 0.248807 0.5 0.371939 0.0827145
455 1 0.960056 0.730854 0.5 0.724449 -0.354903
456 1 0.442927 0.470245 0.5 0.616434 0.0660184
457 1 0.550714 0.939827 0.5 -0.481173 -0.438167
458 1 0.150355 0.592669 0.5 0.12748 -0.922376
459 1 0.947352 0.475757 0.5 0.638602 -0.170886
460 1 0.95983 0.462974 0.5 -0.0869832 -0.910032
461 1 0.849023 0.322542 0.5 -0.470188 0.327468
462 1 0.213033 0.581605 0.5 0.194168 -0.782604
463 1 0.296976 0.277241 0.5 0.521917 -0.605293
464 1 0.267873 0.374551 0.5 0.222033 -0.299293
465 1 0.101636 0.49849 0.5 0.907536 -0.145589
466 1 0.142765 0.348239 0.5 -0.106515 0.166964
467 1 0.906193 0.417551 0.5 -0.0725903 -0.0157736
468 1 0.00749812 0.30338 0.5 -0.346269 -0.3112
469 1 0.085918 0.261849 0.5 -0.95766 -0.236492
470 1 0.301717 0.612566 0.5 0.828971 -0.434595
471 1 0.607378 0.439224 0.5 0.686778 0.437975
472 1 0.150836 0.226631 0.5 -0.310104 0.791999
473 1 0.400182 0.214424 0.5 -0.538207 0.220604
474 1 0.0597424 0.256963 0.5 -0.811795 -0.0647786
475 1 0.461276 0.649625 0.5 0.662341 0.170997
476 1 0.140362 0.540639 0.5 0.68841 0.171037
477 1 0.390448 0.308297 0.5 0.267382 0.54226
478 1 0.144072 0.287337 0.5 -0.32575 -0.250254
479 1 0.342013 0.434651 0.5 0.377673 -0.849019
480 1 0.404215 0.319292 0.5 0.472114 0.651485
481 1 0.0506317 0.313872 0.5 0.0127459 0.73616
482 1 0.969038 0.563178 0.5 0.560595 -0.0579535
483 1 0.182241 0.458193 0.5 0.297304 0.136791
484 1 0.0948162 0.38633 0.5 0.342521 -0.00776547
485 1 0.191376 0.373145 0.5 -0.072817 -0.732056
486 1 0.867706 0.256707 0.5 0.169006 0.103189
487 1 0.729814 0.401825 0.5 -0.341709 -0.15324
488 1 0.273171 0.261867 0.5 0.797083 0.282464
489 1 0.893293 0.641233 0.5 0.433166 -0.183984
490 1 0.927996 0.420177 0.5 -0.0498733 0.500892
491 1 0.410442 0.309357 0.5 0.797747 0.474723
492 1 0.192767 0.438396 0.5 0.381409 -0.639477
493 1 0.222928 0.367094 0.5 0.530501 -0.539844
494 1 0.844365 0.428483 0.5 0.276782 -0.201141
495 1 0.258118 0.474849 0.5 0.00616266 -0.563428
496 1 0.941337 0.311412 0.5 -0.813515 -0.356896
497 1 0.409435 0.282882 0.5 0.865224 0.469246
498 1 0.769264 0.109994 0.5 -0.169482 -0.0617336
499 1 0.433292 0.294084 0.5 0.837563 0.516224
500 1 0.933118 0.183541 0.5 0.364521 0.355023
501 1 0.31876 0.534327 0.5 0.280494 -0.830616
502 1 0.448332 0.352617 0.5 0.735817 0.583165
503 1 0.981507 0.185978 0.5 -0.531928 -0.11644
504 1 0.906343 0.257489 0.5 -0.726342 -0.44475
505 1 0.479138 0.529919 0.5 -0.191566 0.875855
506 1 0.450387 0.530481 0.5 0.278635 0.892649
507 1 0.934805 0.2643 0.5 -0.271697 -0.537843
508 1 0.0788833 0.581529 0.5 0.808419 -0.362702
509 1 0.45187 0.407796 0.5 0.614533 0.735906
510 1 0.112166 0.498421 0.5 0.907135 0.0320784
511 1 0.523103 0.593703 0.5 -0.340105 -0.716613
512 1 0.918441 0.403561 0.5 -0.707273 0.15986
513 1 0.309319 0.640686 0.5 0.828389 -0.236551
514 1 0.0407656 0.470199 0.5 -0.0499571 -0.765685
515 1 0.98614 0.700482 0.5 0.535993 -0.361644
516 1 0.975652 0.226036 0.5 -0.0638279 0.679009
517 1 0.121121 0.37409 0.5 0.456013 -0.119986
518 1 0.924799 0.446826 0.5 -0.734798 0.208852
519 1 0.13078 0.542117 0.5 0.175269 0.187426
520 1 0.814353 0.64768 0.5 0.271111 0.312749
521 1 0.0920173 0.396301 0.5 0.0923744 -0.507758
522 1 0.898757 0.575754 0.5 0.625536 -0.715857
523 1 0.972524 0.591942 0.5 0.624092 -0.658414
524 1 0.133581 0.261506 0.5 -0.80433 -0.0337561
525 1 0.925319 0.370113 0.5 0.236563 -0.0352557
526 1 0.255341 0.510966 0.5 0.327939 -0.406363
527 1 0.229286 0.61665 0.5 -0.551355 -0.604857
528 1 0.43404 0.498285 0.5 0.496502 -0.625741
529 1 0.286741 0.104325 0.5 0.729938 0.275974
530 1 0.202555 0.556694 0.5 -0.303116 -0.909191
531 1 0.206483 0.25138 0.5 -0.704763 -0.511763
532 1 0.275698 0.436552 0.5 0.754943 -0.534324
533 1 0.17436 0.367268 0.5 -0.184221 -0.849899
534 1 0.443613 0.691492 0.5 0.839381 -0.401921
535 1 0.0818688 0.615632 0.5 -0.754923 0.174719
536 1 0.0192238 0.395365 0.5 0.56857 -0.721305
537 1 0.213093 0.996613 0.5 0.84437 0.34662
538 1 0.932102 0.685068 0.5 0.770962 -0.370719
539 1 0.362133 0.517885 0.5 0.138278 -0.765923
540 1 0.0162032 0.459243 0.5 -0.181688 -0.778432
541 1 0.0410278 0.232791 0.5 -0.0999335 -0.658248
542 1 0.00899233 0.52087 0.5 0.832003 -0.12421
543 1 0.0488982 0.623034 0.5 0.66011 -0.732131
544 1 0.66259 0.427998 0.5 0.0411196 0.429979
545 1 0.205599 0.473189 0.5 0.553405 -0.225717
546 1 0.834585 0.64996 0.5 0.780061 0.0688914
547 1 0.957308 0.473891 0.5 0.148948 -0.872578
548 1 0.895913 0.466884 0.5 0.307983 -0.639543
549 1 0.317871 0.588825 0.5 0.244993 -0.728767
550 1 0.156748 0.632317 0.5 0.22905 -0.756137
551 1 0.463918 0.438773 0.5 0.144283 0.790288
552 1 0.205015 0.545024 0.5 -0.233804 -0.29595
553 1 0.81901 0.248523 0.5 0.303434 -0.319165
554 1 0.388939 0.461039 0.5 0.0742408 -0.960325
555 1 0.439065 0.285559 0.5 0.470987 0.474227
556 1 0.0172105 0.449182 0.5 0.275581 -0.613269
557 1 0.0934754 0.405932 0.5 -0.0758001 0.323804
558 1 0.651717 0.427351 0.5 0.674753 -0.0218686
559 1 0.0117319 0.199178 0.5 -0.143413 -0.45709
560 1 0.92042 0.538176 0.5 0.807078 -0.253173
561 1 0.070997 0.380833 0.5 -0.0339385 -0.693006
562 1 0.395519 0.343883 0.5 -0.242714 0.313889
563 1 0.832436 0.469537 0.5 -0.400302 -0.143817
564 1 0.250403 0.497633 0.5 0.238519 -0.00260439
565 1 0.0405732 0.390501 0.5 -0.162795 -0.862015
566 1 0.828075 0.245251 0.5 -0.512346 -0.676573
567 1 0.163064 0.406993 0.5 0.291975 -0.826493
568 1 0.00786912 0.665491 0.5 0.478249 -0.0829859
569 1 0.732549 0.567066 0.5 0.126445 0.684361
570 1 0.321853 0.46732 0.5 0.7025 -0.475477
571 1 0.24143 0.295405 0.5 -0.69454 0.46359
572 1 0.530959 0.404966 0.5 0.260497 0.888221
573 1 0.650329 0.508299 0.5 0.438053 0.666013
574 1 0.0686314 0.272879 0.5 -0.824411 -0.249993
575 1 0.294977 0.679509 0.5 0.397982 -0.213718
576 1 0.818477 0.656613 0.5 0.491496 0.76786
577 1 0.146796 0.339216 0.5 0.103131 -0.453948
578 1 0.581691 0.326262 0.5 0.634477 0.0142259
579 1 0.545234 0.497225 0.5 0.853781 -0.089344
580 1 0.214975 0.30015 0.5 -0.888107 0.113847
581 1 0.423736 0.556782 0.5 0.381516 0.609943
582 1 0.800977 0.372796 0.5 -0.607191 -0.357689
583 1 0.964358 0.612643 0.5 0.556034 -0.647508
584 1 0.210679 0.913536 0.5 0.806092 0.207338
585 1 0.903997 0.312535 0.5 -0.513382 -0.821165
586 1 0.946539 0.238158 0.5 -0.0526012 -0.844002
587 1 0.167146 0.398047 0.5 0.347103 -0.831714
588 1 0.215314 0.423443 0.5 0.0627198 -0.524312
589 1 0.825035 0.281951 0.5 0.446252 -0.81048
590 1 0.422439 0.547362 0.5 -0.248112 -0.177258
591 1 0.335867 0.427523 0.5 0.638721 -0.617711
592 1 0.239727 0.0246585 0.5 0.708385 0.190513
593 1 0.385993 0.47217 0.5 -0.072892 -0.956191
594 1 0.0764784 0.555308 0.5 -0.378195 -0.0181567
595 1 0.371392 0.679288 0.5 -0.470798 0.261199
596 1 0.136402 0.904527 0.5 -0.217224 -0.467679
597 1 0.177453 0.597113 0.5 -0.00487374 -0.361335
598 1 0.510248 0.259106 0.5 0.259839 0.483014
599 1 0.0827014 0.538044 0.5 -0.734388 0.430205
600 1 0.12317 0.318685 0.5 -0.70741 -0.274242
601 1 0.0607955 0.468935 0.5 0.191434 -0.414261
602 1 0.332403 0.436746 0.5 0.575375 -0.77463
603 1 0.0521011 0.578255 0.5 0.729074 -0.288683
604 1 0.995341 0.650433 0.5 -0.574881 0.331833
605 1 0.19539 0.400364 0.5 -0.781017 -0.608648
606 1 0.303291 0.631405 0.5 0.882797 -0.323581
607 1 0.291041 0.416021 0.5 0.365323 -0.66312
608 1 0.0571014 0.449976 0.5 0.270061 -0.89317
609 1 0.209758 0.562876 0.5 0.0874332 -0.654004
610 1 0.150846 0.250485 0.5 -0.562827 -0.26079
611 1 0.195871 0.472511 0.5 0.920948 0.0206529
612 1 0.962421 0.452755 0.5 -0.0310585 -0.815258
613 1 0.153917 0.438587 0.5 0.171271 -0.693878
614 1 0.335881 0.264759 0.5 -0.121678 -0.118808
615 1 0.00435504 0.512841 0.5 0.882444 -0.0725764
616 1 0.966376 0.470112 0.5 0.0554681 -0.886692
617 1 0.458564 0.42692 0.5 0.237157 0.341104
618 1 0.300936 0.526514 0.5 0.378457 0.634199
619 1 0.651538 0.633767 0.5 -0.388833 0.357999
620 1 0.0586206 0.344536 0.5 0.0252893 0.615261
621 1 0.998206 0.453985 0.5 -0.0783754 -0.901854
622 1 0.104202 0.255223 0.5 -0.556348 -0.260434
623 1 0.337898 0.485194 0.5 0.0810671 -0.866583
624 1 0.036034 0.224392 0.5 -0.289813 -0.404949
625 1 0.982025 0.448507 0.5 -0.240772 -0.898642
626 1 0.0699839 0.525556 0.5 0.543625 0.283435
627 1 0.825078 0.392248 0.5 0.416168 0.476955
628 1 0.0512139 0.480215 0.5 -0.028277 0.101279
629 1 0.975537 0.430969 0.5 -0.168264 -0.742188
630 1 0.582996 0.693882 0.5 -0.0825561 -0.310122
631 1 0.498147 0.487927 0.5 0.831568 0.257881
632 1 0.394669 0.396264 0.5 0.634822 -0.218978