LAMMPS (11 Aug 2017)
Created orthogonal box = (-58.36 -58.36 -0.5) to (58.36 58.36 0.5)
  8 by 4 by 1 MPI processor grid
Created 10000 atoms
WARNING: Using 'neigh_modify every 1 delay 0 check yes' setting during minimization (../min.cpp:168)
Neighbor list info ...
  update every 1 steps, delay 0 steps, check yes
  max neighbors/atom: 2000, page size: 100000
  master list distance cutoff = 1.42246
  ghost atom cutoff = 1.42246
  binsize = 0.711231, bins = 165 165 2
  1 neighbor lists, perpetual/occasional/extra = 1 0 0
  (1) pair lj/cut, perpetual
      attributes: half, newton on
      pair build: half/bin/atomonly/newton
      stencil: half/bin/2d/newton
      bin: standard
Setting up cg style minimization ...
  Unit style    : lj
  Current step  : 0
Per MPI rank memory allocation (min/avg/max) = 4.178 | 4.178 | 4.179 Mbytes
Step Temp E_pair E_mol TotEng Press 
       0            0 5.4748108e+23            0 5.4748108e+23 2.411181e+24 
     207            0 4.9017728e-09            0 4.9017728e-09 1.3412069e-05 
Loop time of 0.0355447 on 32 procs for 207 steps with 10000 atoms

96.7% CPU use with 32 MPI tasks x no OpenMP threads

Minimization stats:
  Stopping criterion = linesearch alpha is zero
  Energy initial, next-to-last, final = 
      5.4748107734e+23  4.90177279072e-09  4.90177279072e-09
  Force two-norm initial, final = 1.68508e+31 0.101957
  Force max component initial, final = 1.19152e+31 0.031248
  Final line search alpha, max atom move = 0.03125 0.000976499
  Iterations, force evaluations = 207 554

MPI task timing breakdown:
Section |  min time  |  avg time  |  max time  |%varavg| %total
---------------------------------------------------------------
Pair    | 0.0051341  | 0.0074204  | 0.010721   |   1.5 | 20.88
Neigh   | 0.0021102  | 0.0024633  | 0.0028591  |   0.3 |  6.93
Comm    | 0.0057051  | 0.0082073  | 0.01137    |   1.4 | 23.09
Output  | 0          | 0          | 0          |   0.0 |  0.00
Modify  | 0.00044799 | 0.00049771 | 0.00055695 |   0.0 |  1.40
Other   |            | 0.01696    |            |       | 47.70

Nlocal:    312.5 ave 340 max 292 min
Histogram: 1 4 7 5 3 5 2 2 1 2
Nghost:    99.25 ave 109 max 91 min
Histogram: 5 1 4 4 3 4 3 4 3 1
Neighs:    731.656 ave 862 max 621 min
Histogram: 1 2 5 8 6 2 3 2 0 3

Total # of neighbors = 23413
Ave neighs/atom = 2.3413
Neighbor list builds = 39
Dangerous builds = 0
Setting up Verlet run ...
  Unit style    : lj
  Current step  : 0
  Time step     : 0.005
Per MPI rank memory allocation (min/avg/max) = 4.099 | 4.1 | 4.102 Mbytes
Step Temp E_pair E_mol TotEng Press 
       0            1 4.9017728e-09            0       0.9999   0.73396263 
  100000  0.024490977 0.0048054065            0  0.029293934   0.18954617 
  200000  0.025469728 0.0048256743            0  0.030292855   0.19178058 
  300000  0.025331696  0.004622803            0  0.029951965   0.18498543 
  400000  0.025263793 0.0046778071            0  0.029939073   0.18737693 
  500000  0.024755205 0.0046733096            0  0.029426039   0.18765134 
  600000  0.025005911 0.0047581183            0  0.029761529   0.18902775 
  700000  0.024610047 0.0047271726            0  0.029334759   0.18682559 
  800000  0.024994079 0.0050201331            0  0.030011713   0.19623252 
  900000  0.025255152 0.0047881066            0  0.030040733   0.19089544 
 1000000  0.025347789 0.0046224452            0    0.0299677   0.18586916 
 1100000  0.024690134  0.004668397            0  0.029356062   0.18402131 
 1200000  0.025077838 0.0048146495            0   0.02988998   0.19055079 
 1300000  0.025266487 0.0047586697            0   0.03002263   0.19022178 
 1400000  0.025213013 0.0048097563            0  0.030020248   0.19211961 
 1500000  0.024985731 0.0046303509            0  0.029613584   0.18500408 
 1600000  0.024933913 0.0050238587            0  0.029955278   0.19786626 
 1700000  0.024961423 0.0047916109            0  0.029750538   0.18912714 
 1800000  0.024792242 0.0046536188            0  0.029443381   0.18878088 
 1900000   0.02504813 0.0048941741            0  0.029939799    0.1942898 
 2000000  0.024937427 0.0047571113            0  0.029692045   0.18846663 
 2100000  0.024656209 0.0046531355            0  0.029306878   0.18666607 
 2200000  0.025400677 0.0047743389            0  0.030172476   0.18957495 
 2300000  0.024870412 0.0049623021            0  0.029830227   0.19493182 
 2400000  0.025060617 0.0050927658            0  0.030150877   0.19886237 
 2500000  0.024720035 0.0047562556            0  0.029473819   0.18937883 
 2600000  0.025448205 0.0047875628            0  0.030233223   0.19066631 
 2700000  0.025151796 0.0047877956            0  0.029937077   0.18915289 
 2800000  0.024920802 0.0048461425            0  0.029764453   0.19456057 
 2900000  0.025297211 0.0047267224            0  0.030021404   0.18939348 
 3000000  0.024922166 0.0047425994            0  0.029662273    0.1908399 
 3100000  0.025029813 0.0046633827            0  0.029690693    0.1854793 
 3200000  0.024837977  0.004838109            0  0.029673602    0.1922695 
 3300000  0.025032023 0.0049127809            0    0.0299423   0.19306774 
 3400000  0.025310287 0.0048739314            0  0.030181687   0.19362045 
 3500000  0.024827637  0.004745463            0  0.029570617   0.19034807 
 3600000  0.024745642  0.004567783            0   0.02931095   0.18292155 
 3700000  0.024728175 0.0049076573            0   0.02963336   0.19478454 
 3800000  0.024745387 0.0048148236            0  0.029557736   0.19160067 
 3900000  0.025425386 0.0047269025            0  0.030149745    0.1910367 
 4000000   0.02502511 0.0048979274            0  0.029920535   0.19215927 
 4100000  0.024982103 0.0047955061            0  0.029775111   0.19116133 
 4200000  0.024681957 0.0047674104            0  0.029446899   0.18791684 
 4300000  0.025122803 0.0046743271            0  0.029794617   0.18850798 
 4400000  0.025112123 0.0047869276            0  0.029896539   0.19094263 
 4500000  0.024864484 0.0048332318            0  0.029695229   0.18990915 
 4600000  0.024882019 0.0048925816            0  0.029772113   0.19396535 
 4700000  0.025174114 0.0049149046            0  0.030086501   0.19316879 
 4800000  0.024826309 0.0046554428            0  0.029479269   0.18654117 
 4900000  0.025208965  0.004767542            0  0.029973986   0.19024049 
 5000000   0.02486631 0.0048909929            0  0.029754816   0.19056232 
 5100000  0.025096533 0.0047826791            0  0.029876702   0.18969139 
 5200000  0.024864516 0.0046403697            0    0.0295024    0.1870535 
 5300000  0.025301525 0.0048028658            0  0.030101861   0.19166165 
 5400000  0.024788765 0.0047322931            0  0.029518579   0.18898054 
 5500000  0.025493645 0.0047970117            0  0.030288107   0.19014701 
 5600000   0.02505618  0.004861672            0  0.029915346   0.19284595 
 5700000  0.024842711 0.0049120965            0  0.029752323   0.19260451 
 5800000  0.025000081  0.004818653            0  0.029816234   0.19073089 
 5900000  0.024977779  0.004681192            0  0.029656473   0.18943136 
 6000000  0.024744601 0.0048348293            0  0.029576956   0.19010817 
 6100000  0.024506146 0.0049571084            0  0.029460804   0.19336153 
 6200000   0.02438817 0.0046855475            0  0.029071279   0.18673073 
 6300000   0.02464924   0.00471837            0  0.029365145   0.18826709 
 6400000  0.024950015 0.0048050744            0  0.029752594   0.18908193 
 6500000  0.025152212 0.0047639732            0   0.02991367   0.18979898 
 6600000  0.025226898 0.0048751608            0  0.030099536   0.19028031 
 6700000  0.025399565 0.0049525503            0  0.030349576   0.19490842 
 6800000  0.024980411 0.0046986845            0  0.029676598   0.18710655 
 6900000  0.024932923 0.0048684929            0  0.029798922   0.19293432 
 7000000  0.025117991 0.0048482556            0  0.029963734   0.18958477 
 7100000  0.024487929 0.0048898118            0  0.029375292   0.19121496 
 7200000  0.024974326 0.0047569913            0   0.02972882   0.19041088 
 7300000   0.02511497 0.0047012934            0  0.029813752    0.1875251 
 7400000  0.024900627 0.0046498787            0  0.029548016   0.18880027 
 7500000  0.024599254 0.0045982795            0  0.029195073   0.18451894 
 7600000  0.025169441 0.0046480512            0  0.029814975   0.18580101 
 7700000  0.024399058 0.0046908034            0  0.029087421   0.18777731 
 7800000  0.024630474 0.0049360762            0  0.029564088   0.19409502 
 7900000  0.024761266 0.0046554531            0  0.029414243   0.18752147 
 8000000   0.02568619 0.0047924614            0  0.030476083   0.19038737 
 8100000  0.024882784 0.0046215131            0  0.029501809   0.18676347 
 8200000  0.025348082 0.0046205504            0  0.029966098   0.18527811 
 8300000  0.025371646 0.0049223316            0   0.03029144   0.19460583 
 8400000  0.024888641 0.0045729042            0  0.029459057   0.18342164 
 8500000  0.024635605 0.0047786293            0   0.02941177   0.18906117 
 8600000  0.024952892 0.0047332422            0  0.029683638   0.18952475 
 8700000  0.024923588 0.0048035659            0  0.029724661   0.18907662 
 8800000  0.025007899 0.0049559081            0  0.029961306   0.19613633 
 8900000  0.025062223 0.0045275675            0  0.029587284   0.18319374 
 9000000  0.025130471  0.004622789            0  0.029750746   0.18566407 
 9100000  0.025056012 0.0048377422            0  0.029891249   0.19165533 
 9200000  0.025013118 0.0050501189            0  0.030060736   0.19723752 
 9300000  0.024656268 0.0049672046            0  0.029621007   0.19351081 
 9400000  0.024893314 0.0048118532            0  0.029702678   0.19151572 
 9500000  0.025241507 0.0049104957            0  0.030149478   0.19383519 
 9600000  0.025151226 0.0047292455            0  0.029877956   0.18941672 
 9700000  0.025173571 0.0047943253            0  0.029965379   0.19087054 
 9800000  0.025219107 0.0050541941            0   0.03027078   0.19815053 
 9900000  0.025141193 0.0049213094            0  0.030059989   0.19522076 
10000000  0.024977452  0.004831405            0  0.029806359   0.19253466 
Loop time of 358.777 on 32 procs for 10000000 steps with 10000 atoms

Performance: 12040891.484 tau/day, 27872.434 timesteps/s
99.4% CPU use with 32 MPI tasks x no OpenMP threads

MPI task timing breakdown:
Section |  min time  |  avg time  |  max time  |%varavg| %total
---------------------------------------------------------------
Pair    | 74.252     | 74.698     | 75.436     |   3.5 | 20.82
Neigh   | 12.791     | 12.851     | 12.912     |   0.9 |  3.58
Comm    | 78.819     | 95.802     | 112.57     |  88.5 | 26.70
Output  | 0.1522     | 0.15229    | 0.15301    |   0.0 |  0.04
Modify  | 108.29     | 126.73     | 146.3      |  86.1 | 35.32
Other   |            | 48.55      |            |       | 13.53

Nlocal:    312.5 ave 322 max 304 min
Histogram: 3 3 3 3 2 7 5 1 3 2
Nghost:    97.375 ave 105 max 91 min
Histogram: 1 5 5 2 7 6 0 0 2 4
Neighs:    781.125 ave 859 max 729 min
Histogram: 2 5 5 6 5 3 2 2 1 1

Total # of neighbors = 24996
Ave neighs/atom = 2.4996
Neighbor list builds = 220837
Dangerous builds = 0
Total wall time: 0:05:58
