ITEM: TIMESTEP
0
ITEM: NUMBER OF ATOMS
10725
ITEM: BOX BOUNDS pp pp pp
-5.8359999999999999e+01 5.8359999999999999e+01
-5.8359999999999999e+01 5.8359999999999999e+01
-5.0000000000000000e-01 5.0000000000000000e-01
ITEM: ATOMS id type xs ys zs c_002[1] c_002[2]
1 1 0.064405 0.130688 0.5 -0.930447 0.226105
2 1 0.0630354 0.110462 0.5 -0.705486 0.426978
3 1 0.0846357 0.0431234 0.5 -0.856912 0.463013
4 1 0.0411642 0.169681 0.5 -0.684921 0.529617
5 1 0.0919362 0.123263 0.5 -0.808215 0.516368
6 1 0.114199 0.163421 0.5 -0.845395 -0.0205388
7 1 0.062461 0.219642 0.5 -0.843852 0.438352
8 1 0.105992 0.157902 0.5 -0.805509 -0.0423586
9 1 0.0979236 0.0865894 0.5 -0.923636 0.279737
10 1 0.0048617 0.0739156 0.5 -0.936583 0.249805
11 1 0.0313408 0.0477485 0.5 -0.720083 0.0599067
12 1 0.0623612 0.210065 0.5 -0.770743 0.489934
13 1 0.0307373 0.0573719 0.5 -0.848004 0.211759
14 1 0.0889319 0.09211 0.5 -0.802105 0.343133
15 1 0.0422335 0.0812648 0.5 -0.744606 0.631446
16 1 0.0541703 0.225073 0.5 -0.768276 0.538645
17 1 0.00481652 0.0632366 0.5 -0.899576 0.214184
18 1 0.0737233 0.0177327 0.5 -0.756199 0.582796
19 1 0.0371152 0.107763 0.5 -0.791623 0.251496
20 1 0.0135397 0.0374532 0.5 -0.807315 0.249727
21 1 0.113866 0.142639 0.5 -0.709316 0.569723
22 1 0.11475 0.153286 0.5 -0.919499 0.148168
23 1 0.110401 0.036308 0.5 -0.609441 0.558437
24 1 0.0406789 0.148283 0.5 -0.622462 0.454808
25 1 0.106049 0.0714493 0.5 -0.937653 0.311749
26 1 0.0484862 0.162887 0.5 -0.592133 0.547243
27 1 0.054821 0.0975364 0.5 -0.34036 0.303545
28 1 0.100557 0.237222 0.5 -0.800636 0.566289
29 1 0.0986234 0.216721 0.5 -0.666948 0.541068
30 1 0.0468551 0.0147344 0.5 -0.854727 0.474906
31 1 0.0648819 0.140165 0.5 -0.632271 0.643628
32 1 0.0935549 0.132858 0.5 -0.802351 0.418971
33 1 0.087365 0.169818 0.5 -0.780342 0.311726
34 1 0.0588221 0.166793 0.5 -0.848763 0.430835
35 1 0.11027 0.123107 0.5 -0.583612 0.594431
36 1 0.10515 0.189113 0.5 -0.826677 0.115426
37 1 0.0564287 0.0188739 0.5 -0.844959 0.387219
38 1 0.0390371 0.138577 0.5 -0.458612 0.865694
39 1 0.0194538 0.227221 0.5 -0.79463 0.549404
40 1 0.0816801 0.108116 0.5 -0.829625 0.402164
41 1 0.108638 0.112698 0.5 -0.701955 0.627856
42 1 0.0718954 0.213046 0.5 -0.74598 0.111074
43 1 0.107363 0.221032 0.5 -0.428755 0.742522
44 1 0.0475059 0.0243815 0.5 -0.636973 0.562841
45 1 0.041103 0.179947 0.5 -0.774779 0.427483
46 1 0.00937746 0.105519 0.5 -0.838731 0.336954
47 1 0.0224632 0.180319 0.5 -0.738095 0.378765
48 1 0.0941309 0.142493 0.5 -0.833422 0.342295
49 1 0.0498572 0.0347642 0.5 -0.700929 0.0544147
50 1 0.00470587 0.0854811 0.5 -0.594476 0.321187
51 1 0.99149 0.125746 0.5 -0.766773 0.604459
52 1 0.0868813 0.180678 0.5 -0.752689 0.326242
53 1 0.0674476 0.0437428 0.5 -0.930077 0.218692
54 1 0.0673187 0.0637635 0.5 -0.864021 0.321274
55 1 0.123253 0.157711 0.5 -0.843498 0.466355
56 1 0.117605 0.223727 0.5 -0.483615 0.749299
57 1 0.0856024 0.148697 0.5 -0.761595 0.534598
58 1 0.0126449 0.0274521 0.5 -0.744593 0.588297
59 1 0.0218799 0.0635945 0.5 -0.810818 0.149769
60 1 0.0439694 0.199015 0.5 -0.79827 0.127159
61 1 0.076979 0.177377 0.5 -0.801823 0.462941
62 1 0.0742066 0.114546 0.5 -0.754124 0.478496
63 1 0.109598 0.23017 0.5 -0.626912 0.610242
64 1 0.0315134 0.14581 0.5 -0.580698 0.359321
65 1 0.0748075 0.124797 0.5 -0.864992 0.100955
66 1 0.0881376 0.201135 0.5 -0.469959 0.814343
67 1 0.0255794 0.0934978 0.5 -0.760475 0.610042
68 1 0.0686552 0.183488 0.5 -0.835981 0.370634
69 1 0.0959143 0.056508 0.5 -0.673387 0.641744
70 1 0.0463305 0.132402 0.5 -0.647649 0.714338
71 1 0.0732316 0.232857 0.5 -0.643207 0.432999
72 1 0.00140416 0.129431 0.5 -0.702206 0.43972
73 1 0.131652 0.15126 0.5 -0.832256 0.499752
74 1 0.996652 0.0902106 0.5 -0.799177 0.236312
75 1 0.077554 0.187186 0.5 -0.80056 0.575752
76 1 0.0752217 0.144514 0.5 -0.587498 0.594923
77 1 0.0583688 0.0303718 0.5 -0.770021 0.321531
78 1 0.0279124 0.11287 0.5 -0.850583 0.221247
79 1 0.992716 0.146103 0.5 -0.733846 0.475433
80 1 0.101879 0.127983 0.5 -0.892059 0.370515
81 1 0.0708583 0.203508 0.5 -0.774638 0.561753
82 1 0.0251104 0.190528 0.5 -0.750899 0.446687
83 1 0.0897356 0.212862 0.5 -0.616565 0.601779
84 1 0.0856014 0.138497 0.5 -0.674178 0.50015
85 1 0.0364302 0.118377 0.5 -0.919202 -0.00132787
86 1 0.117513 0.105774 0.5 -0.730795 0.489992
87 1 0.0190714 0.109523 0.5 -0.688363 0.505779
88 1 0.0412978 0.0705738 0.5 -0.577117 0.755946
89 1 0.116308 0.203268 0.5 -0.863185 0.0609344
90 1 0.0161048 0.206863 0.5 -0.777273 0.176867
91 1 0.0407057 0.0311897 0.5 -0.577432 0.324263
92 1 0.0128554 0.166713 0.5 -0.893691 0.130612
93 1 0.085134 0.0531751 0.5 -0.782888 0.512975
94 1 0.982129 0.11144 0.5 -0.855644 0.439465
95 1 0.029025 0.231289 0.5 -0.809669 0.317395
96 1 0.0500163 0.183165 0.5 -0.715419 0.497637
97 1 0.00497508 0.191456 0.5 -0.500532 0.49766
98 1 0.0200316 0.0123106 0.5 -0.435692 0.673965
99 1 0.116018 0.0861366 0.5 -0.694578 0.660967
100 1 0.125017 0.208024 0.5 -0.920476 0.251543
101 1 0.0193947 0.129632 0.5 -0.83006 0.334291
102 1 0.0214546 0.0316727 0.5 -0.854828 0.506677
103 1 0.12309 0.0598613 0.5 -0.827206 0.513449
104 1 0.0556846 0.234759 0.5 -0.607502 0.691517
105 1 0.99262 0.136135 0.5 -0.792012 0.550559
106 1 0.0276051 0.12269 0.5 -0.755841 0.323726
107 1 0.999227 0.120043 0.5 -0.67008 0.189671
108 1 0.104205 0.167495 0.5 -0.497561 0.237138
109 1 0.0802797 0.990804 0.5 -0.505857 0.661733
110 1 0.0331844 0.185193 0.5 -0.884509 0.451428
111 1 0.0756533 0.0384955 0.5 -0.925768 0.349611
112 1 0.0209719 0.161408 0.5 -0.744363 0.318188
113 1 0.0584652 0.157154 0.5 -0.718851 0.541262
114 1 0.0918839 0.232857 0.5 -0.761259 0.550839
115 1 0.0298069 0.135516 0.5 -0.55478 0.488253
116 1 0.05734 0.147645 0.5 -0.520787 0.557853
117 1 0.0164676 0.196459 0.5 -0.792157 0.303354
118 1 0.0727304 0.104335 0.5 -0.873228 0.351685
119 1 0.0436415 0.0916102 0.5 -0.664705 0.692101
120 1 0.095167 0.16464 0.5 -0.805725 0.185646
121 1 0.990431 0.105453 0.5 -0.80803 0.543655
122 1 0.0830817 0.238351 0.5 -0.821453 0.355894
123 1 0.0392872 0.160328 0.5 -0.632093 0.377089
124 1 0.0828048 0.119342 0.5 -0.862331 0.448762
125 1 0.99685 0.0798513 0.5 -0.921545 0.0611552
126 1 0.0536774 0.999105 0.5 -0.557716 0.818993
127 1 0.064804 0.0143892 0.5 -0.720245 0.474226
128 1 0.0746891 0.0283959 0.5 -0.839308 0.500447
129 1 0.10292 0.138505 0.5 -0.670137 0.36656
130 1 0.0382376 0.237055 0.5 -0.867563 0.351772
131 1 0.107314 0.199215 0.5 -0.716858 0.221259
132 1 0.0555264 0.00894551 0.5 -0.728081 0.563202
133 1 0.0727525 0.0071025 0.5 -0.792851 0.517205
134 1 0.0405741 0.0508656 0.5 -0.661425 0.524325
135 1 0.0488078 0.152716 0.5 -0.897728 0.275987
136 1 0.017214 0.100125 0.5 -0.63341 0.733399
137 1 0.0290316 0.0154983 0.5 -0.627976 0.681155
138 1 0.0926777 0.242449 0.5 -0.841919 0.498639
139 1 0.0479306 0.0449111 0.5 -0.623318 0.280355
140 1 0.00795908 0.200575 0.5 -0.451344 0.1998
141 1 0.101589 0.246992 0.5 -0.822199 0.355342
142 1 0.0813579 0.0115281 0.5 -0.873838 0.399654
143 1 0.0639806 0.229236 0.5 -0.72047 0.668349
144 1 0.0799084 0.0780674 0.5 -0.737363 0.429959
145 1 0.0837562 0.0328275 0.5 -0.786784 0.541531
146 1 0.0543683 0.106959 0.5 -0.864976 0.189017
147 1 0.0426768 0.189391 0.5 -0.725831 0.628278
148 1 0.0861188 0.190989 0.5 -0.687128 0.481542
149 1 0.0106358 0.234653 0.5 -0.622857 0.239848
150 1 0.0683413 0.0735877 0.5 -0.76519 0.5694
151 1 0.101413 0.0410853 0.5 -0.691242 0.528167
152 1 0.0125341 0.157141 0.5 -0.81453 0.00884877
153 1 0.0698906 0.193223 0.5 -0.771029 0.613527
154 1 0.0922945 0.0373847 0.5 -0.754882 0.583688
155 1 0.0879698 0.0723291 0.5 -0.773797 0.515188
156 1 0.0482606 0.142237 0.5 -0.676449 0.597841
157 1 0.0298529 0.0255176 0.5 -0.837706 0.461223
158 1 0.0466785 0.231547 0.5 -0.666444 0.667819
159 1 0.00250085 0.140504 0.5 -0.802173 0.0799022
160 1 0.0208946 0.0219785 0.5 -0.761592 0.597149
161 1 0.0155734 0.0883003 0.5 -0.571392 0.580511
162 1 0.00326015 0.0429145 0.5 -0.920733 0.0809499
163 1 0.0674881 0.0537644 0.5 -0.972099 0.146633
164 1 0.0749311 0.243764 0.5 -0.819348 0.541086
165 1 0.0669366 0.0341393 0.5 -0.879269 0.446821
166 1 0.0328601 0.0771887 0.5 -0.685256 0.676739
167 1 0.115087 0.183822 0.5 -0.930141 -0.17763
168 1 0.0222329 0.0412012 0.5 -0.908915 0.0603174
169 1 0.11901 0.115889 0.5 -0.602147 0.765235
170 1 0.0444236 0.995531 0.5 -0.785688 0.218033
171 1 0.101076 0.0310682 0.5 -0.869027 0.414548
172 1 0.0325778 0.174666 0.5 -0.840936 0.28837
173 1 0.0802326 0.0874333 0.5 -0.803859 0.432563
174 1 0.0615757 0.0899427 0.5 -0.365286 0.718143
175 1 0.0524949 0.20552 0.5 -0.795368 0.154357
176 1 0.00395863 0.171133 0.5 -0.8523 0.300163
177 1 0.0802992 0.219452 0.5 -0.528208 0.1429
178 1 0.0604064 0.189249 0.5 -0.880515 0.404499
179 1 0.106443 0.177247 0.5 -0.486285 0.0855926
180 1 0.105616 0.1481 0.5 -0.788885 0.367153
181 1 0.0693288 0.0831475 0.5 -0.555874 0.587926
182 1 0.0375263 0.128355 0.5 -0.704515 0.600063
183 1 0.993596 0.0379278 0.5 -0.893474 0.140061
184 1 0.113668 0.0559181 0.5 -0.884564 0.392575
185 1 0.0265701 0.103351 0.5 -0.693541 0.648686
186 1 0.025934 0.211306 0.5 -0.776403 0.584118
187 1 0.0822465 0.0224676 0.5 -0.750651 0.597388
188 1 0.0941812 0.0469165 0.5 -0.632353 0.738541
189 1 0.098611 0.107934 0.5 -0.803832 0.148135
190 1 0.00294856 0.248918 0.5 -0.7857 0.537946
191 1 0.0340897 0.195399 0.5 -0.870564 0.323724
192 1 0.090187 0.222271 0.5 -0.593334 0.648745
193 1 0.000894495 0.110066 0.5 -0.770534 0.0113199
194 1 0.100812 0.117976 0.5 -0.805062 0.453372
195 1 0.0203444 0.236894 0.5 -0.673992 0.500097
196 1 0.0833089 0.228924 0.5 -0.526877 0.337797
197 1 0.0143239 0.0786835 0.5 -0.885323 0.419943
198 1 0.105633 0.208882 0.5 -0.619843 0.201749
199 1 0.00761594 0.095889 0.5 -0.510251 0.51578
200 1 0.12015 0.125314 0.5 -0.599418 0.472521
201 1 0.0311279 0.0360011 0.5 -0.916113 0.172057
202 1 0.0907412 0.113319 0.5 -0.871279 0.365188
203 1 0.0970305 0.184346 0.5 -0.827676 0.316043
204 1 0.0333988 0.0876937 0.5 -0.691117 0.666835
205 1 0.055029 0.12652 0.5 -0.839089 0.512059
206 1 0.115813 0.173723 0.5 -0.825145 0.0082164
207 1 0.0134883 0.176382 0.5 -0.91243 0.337016
208 1 0.0587524 0.0590245 0.5 -0.958553 0.0970266
209 1 0.0644664 0.099283 0.5 -0.444352 0.343108
210 1 0.109359 0.241065 0.5 -0.884399 0.230518
211 1 0.0724513 0.0939952 0.5 -0.621631 0.613014
212 1 0.0184128 0.217603 0.5 -0.74113 0.559494
213 1 0.986994 0.172544 0.5 -0.841429 0.329565
214 1 0.0184717 0.119082 0.5 -0.808064 0.432234
215 1 0.0808451 0.208857 0.5 -0.644984 0.309426
216 1 0.99068 0.115341 0.5 -0.936767 0.218909
217 1 0.011741 0.147362 0.5 -0.57124 0.211847
218 1 0.0450293 0.122652 0.5 -0.819056 0.446215
219 1 0.0305836 0.243091 0.5 -0.873776 0.245009
220 1 0.0364708 0.00922614 0.5 -0.765343 0.361032
221 1 0.0101724 0.134643 0.5 -0.849725 0.2235
222 1 0.0964536 0.194439 0.5 -0.768868 0.419534
223 1 0.0350099 0.215926 0.5 -0.682337 0.637647
224 1 0.00549231 0.181944 0.5 -0.841838 0.318836
225 1 0.0776883 0.0682006 0.5 -0.750313 0.518727
226 1 0.110009 0.252956 0.5 -0.852357 0.26717
227 1 0.0397604 0.0604439 0.5 -0.686847 0.479705
228 1 0.0579061 0.0398859 0.5 -0.915609 0.0431243
229 1 0.107702 0.0915869 0.5 -0.874909 0.424503
230 1 0.0646222 0.119904 0.5 -0.755406 0.419202
231 1 0.0972305 0.0770009 0.5 -0.94012 0.267396
232 1 0.117874 0.0955649 0.5 -0.763601 0.485302
233 1 0.995221 0.166173 0.5 -0.790603 0.498356
234 1 0.0230517 0.170918 0.5 -0.717687 0.449157
235 1 0.022886 0.0732942 0.5 -0.820305 0.528838
236 1 0.986582 0.162518 0.5 -0.646065 0.664552
237 1 0.131957 0.161065 0.5 -0.745024 0.545714
238 1 0.00116487 0.150454 0.5 -0.623005 0.0474917
239 1 0.0871811 0.159013 0.5 -0.857888 0.23237
240 1 0.0832509 0.12911 0.5 -0.735939 0.445853
241 1 0.0142521 0.186215 0.5 -0.760807 0.513996
242 1 0.998772 0.0996828 0.5 -0.632284 0.44566
243 1 0.0763011 0.166876 0.5 -0.65194 0.149475
244 1 0.0308883 0.165105 0.5 -0.764975 0.522141
245 1 0.0990651 0.097679 0.5 -0.938086 0.166973
246 1 0.0715172 0.223343 0.5 -0.749266 0.33394
247 1 0.0122759 0.0469052 0.5 -0.834647 0.214945
248 1 0.02503 0.200615 0.5 -0.940993 0.23661
249 1 0.994051 0.156383 0.5 -0.614823 0.779636
250 1 0.0109413 0.124688 0.5 -0.80105 0.230966
251 1 0.021875 0.0518201 0.5 -0.944984 -0.113888
252 1 0.00294742 0.159855 0.5 -0.572725 0.259922
253 1 0.0523148 0.0847886 0.5 -0.707344 0.589606
254 1 0.0684419 0.172289 0.5 -0.965636 0.134741
255 1 0.0581215 0.0491715 0.5 -0.921209 0.310709
256 1 0.0394129 0.0408029 0.5 -0.800604 0.207061
257 1 0.0556588 0.135907 0.5 -0.738376 0.579598
258 1 0.115208 0.193947 0.5 -0.888923 0.41748
259 1 0.0207858 0.139206 0.5 -0.695331 0.348174
260 1 0.0133893 0.0685587 0.5 -0.953875 0.126339
261 1 0.0605868 0.0794891 0.5 -0.811695 0.556231
262 1 0.0487201 0.0638566 0.5 -0.60341 0.254504
263 1 0.0454805 0.101 0.5 -0.612195 0.224168
264 1 0.0239939 0.0838187 0.5 -0.797219 0.464791
265 1 0.0659879 0.0236806 0.5 -0.765017 0.557167
266 1 0.0102694 0.222777 0.5 -0.603226 0.60387
267 1 0.0668835 0.149669 0.5 -0.514139 0.662562
268 1 0.0339635 0.205628 0.5 -0.902653 0.338386
269 1 0.0785268 0.196872 0.5 -0.647161 0.730394
270 1 0.096002 0.174661 0.5 -0.649471 0.568237
271 1 0.102174 0.258031 0.5 -0.942994 0.253665
272 1 0.975904 0.148874 0.5 -0.928486 0.263246
273 1 0.105252 0.0607722 0.5 -0.82646 0.399599
274 1 0.106937 0.0818125 0.5 -0.912332 0.325962
275 1 0.076899 0.0584309 0.5 -0.907308 0.350914
276 1 0.0447349 0.220493 0.5 -0.703337 0.575294
277 1 0.0275161 0.222185 0.5 -0.752976 0.576978
278 1 0.0676381 0.16027 0.5 -0.777614 0.226743
279 1 0.073076 0.134622 0.5 -0.623862 0.311936
280 1 0.0759185 0.0487436 0.5 -0.943638 0.245617
281 1 0.0543303 0.11674 0.5 -0.762587 0.490396
282 1 0.99833 0.198137 0.5 -0.339395 0.71038
283 1 0.0497955 0.173252 0.5 -0.78199 0.578886
284 1 0.0862442 0.0627195 0.5 -0.766684 0.569289
285 1 0.0383418 0.0206135 0.5 -0.730157 0.518312
286 1 0.0594107 0.177306 0.5 -0.90882 0.201139
287 1 0.0221487 0.151363 0.5 -0.848985 0.204863
288 1 0.0782486 0.154846 0.5 -0.599901 0.295581
289 1 0.0990461 0.226484 0.5 -0.706484 0.606
290 1 0.0635691 0.00261829 0.5 -0.64264 0.624632
291 1 0.0376983 0.22702 0.5 -0.677817 0.448462
292 1 0.0914775 0.0261964 0.5 -0.740814 0.619205
293 1 0.103841 0.0512034 0.5 -0.735742 0.54669
294 1 0.0452568 0.113095 0.5 -0.916414 0.110591
295 1 0.0958463 0.15412 0.5 -0.843877 0.261127
296 1 0.0571598 0.245194 0.5 -0.483756 0.807583
297 1 0.00395529 0.0523724 0.5 -0.882093 0.43765
298 1 0.123789 0.168345 0.5 -0.781431 0.496046
299 1 0.0308472 0.0674019 0.5 -0.6219 0.670742
300 1 0.0137662 0.0566459 0.5 -0.767342 0.171828
301 1 0.0539952 0.215133 0.5 -0.916378 0.266634
302 1 0.0903762 0.0160585 0.5 -0.789862 0.566878
303 1 0.988566 0.0846382 0.5 -0.812332 0.218509
304 1 0.0720032 0.997536 0.5 -0.744419 0.56681
305 1 0.0433398 0.209817 0.5 -0.84414 0.236921
306 1 0.979195 0.0910621 0.5 -0.773307 0.578286
307 1 0.0909682 0.102386 0.5 -0.821921 0.176163
308 1 0.00716852 0.21197 0.5 -0.59658 0.439668
309 1 0.111664 0.132424 0.5 -0.663622 0.693979
310 1 0.107995 0.102785 0.5 -0.825907 0.333206
311 1 0.0454958 0.00530764 0.5 -0.739337 0.357164
312 1 0.0970563 0.204411 0.5 -0.612098 0.457059
313 1 0.081544 0.0983452 0.5 -0.798581 0.523648
314 1 0.035519 0.0978993 0.5 -0.60405 0.699664
315 1 0.0594049 0.0700495 0.5 -0.820694 0.457594
316 1 0.0115131 0.243991 0.5 -0.751329 0.550776
317 1 0.117507 0.24658 0.5 -0.772082 0.224223
318 1 0.0698796 0.987147 0.5 -0.664753 0.587833
319 1 0.048061 0.242258 0.5 -0.622092 0.633323
320 1 0.0975241 0.0670272 0.5 -0.787342 0.400545
321 1 0.00943217 0.115323 0.5 -0.85388 0.162684
322 1 0.0213755 0.247868 0.5 -0.868028 0.26324
323 1 0.122375 0.147568 0.5 -0.797537 0.535028
324 1 0.052299 0.194449 0.5 -0.866995 0.301822
325 1 0.030507 0.155693 0.5 -0.921282 0.14269
326 1 0.989081 0.096025 0.5 -0.779312 0.571377
327 1 0.00286788 0.228773 0.5 -0.442261 0.216812
328 1 0.98633 0.0644665 0.5 -0.647832 0.2036
329 1 0.0612952 0.198862 0.5 -0.866562 0.481151
330 1 0.0892678 0.0824211 0.5 -0.893315 0.292332
331 1 0.0512831 0.0750781 0.5 -0.769626 0.537165
332 1 0.0501648 0.0542076 0.5 -0.695456 0.254713
333 1 0.029501 0.471236 0.5 -0.622044 0.26022
334 1 0.106097 0.427599 0.5 -0.732639 0.219081
335 1 0.00247868 0.476742 0.5 -0.934056 0.306415
336 1 0.0363834 0.444459 0.5 -0.295005 0.908496
337 1 0.112608 0.38178 0.5 -0.618427 0.602195
338 1 0.0299659 0.360759 0.5 -0.719141 0.171038
339 1 0.108414 0.339054 0.5 -0.788425 0.275296
340 1 0.0746665 0.364353 0.5 -0.678535 0.419937
341 1 0.0789604 0.402369 0.5 -0.425327 0.256071
342 1 0.982352 0.339327 0.5 -0.751431 0.205345
343 1 0.101413 0.454402 0.5 -0.751777 0.544596
344 1 0.0265294 0.290156 0.5 -0.760883 0.281866
345 1 0.0530753 0.334167 0.5 -0.787422 0.439302
346 1 0.0577426 0.385715 0.5 -0.726595 0.558069
347 1 0.0289117 0.461309 0.5 -0.672523 0.500541
348 1 0.0673269 0.389217 0.5 -0.836585 0.496053
349 1 0.027926 0.341396 0.5 -0.779253 0.0418222
350 1 0.0718993 0.439973 0.5 -0.782435 0.605435
351 1 0.0144089 0.274788 0.5 -0.610185 0.686048
352 1 0.0211582 0.367036 0.5 -0.945463 0.238623
353 1 0.119384 0.267181 0.5 -0.856491 0.510478
354 1 0.0936757 0.384185 0.5 -0.43931 0.306804
355 1 0.107505 0.318795 0.5 -0.848962 0.324669
356 1 0.115516 0.302221 0.5 -0.70541 0.460568
357 1 0.102447 0.377314 0.5 -0.697745 0.683231
358 1 0.0877607 0.291249 0.5 -0.857613 0.412496
359 1 0.0893801 0.310863 0.5 -0.817926 0.415602
360 1 0.100931 0.345751 0.5 -0.766791 0.201477
361 1 0.117548 0.442611 0.5 -0.963127 0.202885
362 1 0.0193204 0.476285 0.5 -0.928371 -0.0454076
363 1 0.0427135 0.426575 0.5 -0.880906 0.282365
364 1 0.0628719 0.347793 0.5 -0.625512 0.383222
365 1 0.0999533 0.324786 0.5 -0.837385 0.459608
366 1 0.0340502 0.421609 0.5 -0.760544 0.385694
367 1 0.0306389 0.253831 0.5 -0.942412 -0.012593
368 1 0.0176339 0.304412 0.5 -0.958139 0.0832664
369 1 0.04944 0.499743 0.5 -0.882368 0.285617
370 1 0.0662467 0.359491 0.5 -0.561475 0.406783
371 1 0.0945374 0.263559 0.5 -0.930324 0.141821
372 1 0.0264511 0.330541 0.5 -0.776583 0.291392
373 1 0.0279678 0.451194 0.5 -0.684549 0.596305
374 1 0.111302 0.272877 0.5 -0.901327 0.412246
375 1 0.0496468 0.410558 0.5 -0.840661 0.384114
376 1 0.120547 0.27746 0.5 -0.685616 0.554625
377 1 0.0525308 0.293563 0.5 -0.917606 0.220277
378 1 0.0903137 0.320346 0.5 -0.900428 0.240463
379 1 0.00469991 0.398306 0.5 -0.837566 0.516092
380 1 0.104543 0.288559 0.5 -0.749276 0.640351
381 1 0.00346004 0.388209 0.5 -0.916405 0.282268
382 1 0.0702218 0.292514 0.5 -0.946169 0.272663
383 1 0.0702206 0.282857 0.5 -0.857935 0.246995
384 1 0.040008 0.396045 0.5 -0.837357 0.475766
385 1 0.0729426 0.352491 0.5 -0.695689 0.482771
386 1 0.0241967 0.417617 0.5 -0.565574 0.781095
387 1 0.0682254 0.400749 0.5 -0.527447 0.252896
388 1 0.119887 0.37534 0.5 -0.644996 0.531052
389 1 0.999633 0.294968 0.5 -0.750289 0.218678
390 1 0.0757288 0.252928 0.5 -0.70321 0.443928
391 1 0.0989651 0.443179 0.5 -0.578892 0.536788
392 1 0.0557571 0.376426 0.5 -0.644666 0.321443
393 1 0.0958038 0.284475 0.5 -0.735056 0.545728
394 1 0.113466 0.402945 0.5 -0.530558 0.593865
395 1 0.0495901 0.510558 0.5 -0.724505 0.574246
396 1 0.00739662 0.42088 0.5 -0.545621 0.75704
397 1 0.0322691 0.273068 0.5 -0.550265 0.538459
398 1 0.0494658 0.390661 0.5 -0.75871 0.311697
399 1 0.0874957 0.417899 0.5 -0.752068 0.293597
400 1 0.0396232 0.247595 0.5 -0.898497 0.390113
401 1 0.0892181 0.437817 0.5 -0.705536 0.494705
402 1 0.057591 0.480958 0.5 -0.752659 0.112491
403 1 0.0920276 0.341703 0.5 -0.592513 0.149235
404 1 0.0122934 0.372745 0.5 -0.940767 0.0369275
405 1 0.0887834 0.42769 0.5 -0.804587 0.299868
406 1 0.0263569 0.310007 0.5 -0.851762 -0.107685
407 1 0.0929865 0.373111 0.5 -0.885327 0.259679
408 1 0.0515522 0.431701 0.5 -0.67786 0.441246
409 1 0.0225666 0.506738 0.5 -0.565773 0.656242
410 1 0.999726 0.336127 0.5 -0.536801 0.741715
411 1 0.0201712 0.486509 0.5 -0.913911 0.154487
412 1 0.00765926 0.330496 0.5 -0.827466 0.475474
413 1 0.0899221 0.331765 0.5 -0.701144 0.241292
414 1 0.995282 0.383321 0.5 -0.796033 0.450109
415 1 0.120307 0.483273 0.5 -0.655596 0.403196
416 1 0.0124338 0.264764 0.5 -0.679062 0.297046
417 1 0.0651484 0.239508 0.5 -0.744313 0.631744
418 1 0.0114585 0.460843 0.5 -0.90606 -0.011065
419 1 0.0624272 0.307479 0.5 -0.816217 0.417302
420 1 0.995238 0.39391 0.5 -0.873393 0.436
421 1 0.0974478 0.433078 0.5 -0.878593 0.269425
422 1 0.0209422 0.376578 0.5 -0.910105 0.0800548
423 1 0.104312 0.408263 0.5 -0.705717 0.297386
424 1 0.108788 0.32899 0.5 -0.898792 0.0775441
425 1 0.996261 0.403917 0.5 -0.797743 0.492751
426 1 0.0380389 0.366781 0.5 -0.924344 -0.152734
427 1 0.0441742 0.298308 0.5 -0.970076 0.0671221
428 1 0.0399747 0.473006 0.5 -0.603567 0.12294
429 1 0.0172051 0.28555 0.5 -0.61048 0.42882
430 1 0.096629 0.393195 0.5 -0.597071 0.21238
431 1 0.0171547 0.295054 0.5 -0.973749 -0.0225644
432 1 0.0201867 0.456563 0.5 -0.888908 0.16798
433 1 0.103092 0.277938 0.5 -0.810001 0.4507
434 1 0.985804 0.379658 0.5 -0.82036 0.466993
435 1 0.0616626 0.2977 0.5 -0.818475 0.523454
436 1 0.0722975 0.331878 0.5 -0.7191 0.648533
437 1 0.0654416 0.369312 0.5 -0.70543 0.375002
438 1 0.0471529 0.361903 0.5 -0.746896 0.289365
439 1 0.105537 0.298865 0.5 -0.660409 0.723957
440 1 0.0318559 0.401827 0.5 -0.807984 0.50001
441 1 0.0847375 0.378126 0.5 -0.936964 0.0244491
442 1 0.0731959 0.45034 0.5 -0.761719 0.494697
443 1 0.0032312 0.377091 0.5 -0.838157 0.150392
444 1 0.0218228 0.398013 0.5 -0.86484 0.383027
445 1 0.102097 0.464845 0.5 -0.927153 0.208763
446 1 0.0739114 0.481967 0.5 -0.91787 -0.168161
447 1 0.990619 0.333753 0.5 -0.631181 0.59654
448 1 0.00915507 0.339795 0.5 -0.702078 0.672312
449 1 0.00858834 0.431312 0.5 -0.782134 0.573547
450 1 0.0667969 0.464647 0.5 -0.563323 0.147399
451 1 0.0945712 0.273397 0.5 -0.901273 0.290564
452 1 0.0867977 0.39734 0.5 -0.634266 0.287252
453 1 0.131296 0.38996 0.5 -0.977833 0.16636
454 1 0.101395 0.367759 0.5 -0.615046 0.462915
455 1 0.0813436 0.444596 0.5 -0.65908 0.626686
456 1 0.0997723 0.334825 0.5 -0.708751 0.515624
457 1 0.0695578 0.271297 0.5 -0.52881 0.600701
458 1 0.987496 0.399391 0.5 -0.697069 0.658753
459 1 0.091428 0.360651 0.5 -0.639003 0.497321
460 1 0.995249 0.493666 0.5 -0.770588 0.362159
461 1 0.10442 0.386754 0.5 -0.596468 0.491891
462 1 0.105138 0.398549 0.5 -0.862119 0.0883839
463 1 0.0209229 0.357438 0.5 -0.715391 0.404226
464 1 0.101959 0.474332 0.5 -0.819473 0.194034
465 1 0.999914 0.426784 0.5 -0.755778 0.524887
466 1 0.00170666 0.466173 0.5 -0.881603 0.17874
467 1 0.116305 0.412719 0.5 -0.412462 0.615174
468 1 0.0930746 0.459882 0.5 -0.866484 0.272904
469 1 0.00177741 0.356084 0.5 -0.820494 0.394551
470 1 0.0379056 0.453928 0.5 -0.541185 0.801915
471 1 0.0591942 0.255288 0.5 -0.5452 0.598432
472 1 0.042693 0.26835 0.5 -0.705608 0.449819
473 1 0.0222567 0.269057 0.5 -0.779452 0.567462
474 1 0.0246404 0.320475 0.5 -0.703175 -0.142804
475 1 0.999617 0.447404 0.5 -0.625665 0.318588
476 1 0.0290036 0.382043 0.5 -0.849078 0.174894
477 1 0.991997 0.343129 0.5 -0.559072 0.748515
478 1 0.0919783 0.471277 0.5 -0.824149 0.166242
479 1 0.0561887 0.461259 0.5 -0.543499 0.761035
480 1 0.0741741 0.492381 0.5 -0.850462 0.371932
481 1 0.0791919 0.286845 0.5 -0.750752 0.488305
482 1 0.0850901 0.257874 0.5 -0.962311 0.104281
483 1 0.0667047 0.24923 0.5 -0.72042 0.666631
484 1 0.0633195 0.436376 0.5 -0.63999 0.581688
485 1 0.0633053 0.445941 0.5 -0.8787 0.408648
486 1 0.0435815 0.330036 0.5 -0.908499 0.339389
487 1 0.0494318 0.252944 0.5 -0.533329 0.65094
488 1 0.0530878 0.324585 0.5 -0.726478 0.498677
489 1 0.10681 0.417477 0.5 -0.68175 0.321471
490 1 0.0706159 0.429699 0.5 -0.703794 0.62573
491 1 0.123658 0.296987 0.5 -0.918727 0.111889
492 1 0.0973213 0.423457 0.5 -0.940783 0.160622
493 1 0.0755237 0.460295 0.5 -0.768119 0.00574902
494 1 0.992888 0.352551 0.5 -0.708271 0.680715
495 1 0.112652 0.392109 0.5 -0.768872 0.423858
496 1 0.0111189 0.471128 0.5 -0.965102 -0.0484872
497 1 0.0110848 0.350554 0.5 -0.779587 0.368915
498 1 0.0842382 0.367062 0.5 -0.570948 0.517407
499 1 0.0771988 0.414525 0.5 -0.630604 0.457116
500 1 0.0563809 0.366776 0.5 -0.756142 0.311898
501 1 0.119027 0.364905 0.5 -0.868671 0.187457
502 1 0.0137636 0.403006 0.5 -0.881447 0.335296
503 1 0.110516 0.371439 0.5 -0.597454 0.770275
504 1 0.0361328 0.346091 0.5 -0.71151 0.484553
505 1 0.0511146 0.421088 0.5 -0.83096 0.490819
506 1 0.110477 0.263061 0.5 -0.902316 0.35898
507 1 0.038195 0.482597 0.5 -0.339123 0.214358
508 1 0.0423118 0.416846 0.5 -0.832063 0.442892
509 1 0.988688 0.312392 0.5 -0.742654 0.232272
510 1 0.0679642 0.260565 0.5 -0.531393 0.682466
511 1 0.0511785 0.272293 0.5 -0.845115 0.416895
512 1 0.0112149 0.490749 0.5 -0.655208 0.341092
513 1 0.0625929 0.327684 0.5 -0.695075 0.646395
514 1 0.0219191 0.257817 0.5 -0.908816 0.120588
515 1 0.0710405 0.311248 0.5 -0.935184 0.16975
516 1 0.0123095 0.362732 0.5 -0.935587 0.0842731
517 1 0.0581088 0.395739 0.5 -0.955584 0.2131
518 1 0.0457092 0.447915 0.5 -0.580967 0.747594
519 1 0.11682 0.432397 0.5 -0.916856 0.165578
520 1 0.0769969 0.26325 0.5 -0.592358 0.541321
521 1 0.0123679 0.392451 0.5 -0.878451 0.279526
522 1 0.125554 0.437347 0.5 -0.95289 -0.0322012
523 1 0.0121871 0.383056 0.5 -0.94864 0.0726008
524 1 0.0836119 0.476614 0.5 -0.946693 -0.0603469
525 1 0.0964007 0.29516 0.5 -0.785436 0.581335
526 1 0.0842255 0.456238 0.5 -0.747698 0.299458
527 1 0.131268 0.380418 0.5 -0.673302 0.43033
528 1 0.0988394 0.314947 0.5 -0.804718 0.569057
529 1 0.0201515 0.466728 0.5 -0.929119 -0.121824
530 1 0.054841 0.441467 0.5 -0.609878 0.514869
531 1 0.999128 0.326207 0.5 -0.81625 0.493974
532 1 0.0299155 0.490844 0.5 -0.667781 0.483649
533 1 0.0839687 0.466355 0.5 -0.922068 -0.0202646
534 1 0.0391388 0.463541 0.5 -0.568222 0.69323
535 1 0.00969861 0.440978 0.5 -0.900685 0.377011
536 1 0.0609181 0.425919 0.5 -0.650976 0.604594
537 1 0.124632 0.318684 0.5 -0.656329 0.623412
538 1 0.00584118 0.409223 0.5 -0.67628 0.549394
539 1 0.079682 0.315621 0.5 -0.926344 0.20418
540 1 0.988773 0.41052 0.5 -0.808439 0.265942
541 1 0.0358365 0.335493 0.5 -0.85647 0.441272
542 1 0.0442715 0.288588 0.5 -0.902003 0.222777
543 1 0.0852602 0.24837 0.5 -0.764703 0.267213
544 1 0.117223 0.324674 0.5 -0.855955 0.213612
545 1 0.110483 0.479767 0.5 -0.883248 0.22011
546 1 0.109398 0.447997 0.5 -0.868671 0.288005
547 1 0.116809 0.334507 0.5 -0.896072 0.025455
548 1 0.013227 0.253569 0.5 -0.834003 0.301038
549 1 0.026764 0.441765 0.5 -0.52678 0.365393
550 1 0.0776722 0.276494 0.5 -0.555911 0.608767
551 1 0.046894 0.381038 0.5 -0.754608 0.307992
552 1 0.122732 0.405406 0.5 -0.374831 0.673823
553 1 0.0495162 0.400716 0.5 -0.97121 0.182949
554 1 0.0578727 0.504912 0.5 -0.728553 0.492185
555 1 0.0858947 0.268485 0.5 -0.801213 0.326199
556 1 0.034195 0.324893 0.5 -0.842137 0.201128
557 1 0.117719 0.422386 0.5 -0.853769 0.0831162
558 1 0.0254721 0.428373 0.5 -0.666458 0.505962
559 1 0.10882 0.437761 0.5 -0.758157 0.402071
560 1 0.0584309 0.405341 0.5 -0.968811 0.0123246
561 1 0.0111144 0.480939 0.5 -0.953742 0.136671
562 1 0.0792806 0.296772 0.5 -0.952211 0.256447
563 1 0.0975686 0.30515 0.5 -0.735772 0.666231
564 1 0.126006 0.417222 0.5 -0.609353 0.414225
565 1 0.00252366 0.487104 0.5 -0.712329 0.514109
566 1 0.0466172 0.457417 0.5 -0.663853 0.702785
567 1 0.0703178 0.321922 0.5 -0.759943 0.380857
568 1 0.0380355 0.376519 0.5 -0.969922 0.0996541
569 1 0.123481 0.287269 0.5 -0.758831 0.307212
570 1 0.0605176 0.28776 0.5 -0.781733 -0.0450276
571 1 0.0172489 0.31404 0.5 -0.685783 -0.159083
572 1 0.0484879 0.477918 0.5 -0.825997 0.117537
573 1 0.0521779 0.314399 0.5 -0.700206 0.164773
574 1 0.00775753 0.299763 0.5 -0.948383 -0.110726
575 1 0.038768 0.386637 0.5 -0.820179 0.508765
576 1 0.0824851 0.48658 0.5 -0.891726 0.114992
577 1 0.0222276 0.408063 0.5 -0.804685 0.433732
578 1 0.0351532 0.3147 0.5 -0.919885 -0.0448503
579 1 0.997997 0.417324 0.5 -0.554619 0.480297
580 1 0.111219 0.490634 0.5 -0.560926 0.517802
581 1 0.108199 0.360365 0.5 -0.473639 0.179861
582 1 0.0342688 0.304583 0.5 -0.870398 0.2149
583 1 0.010135 0.450686 0.5 -0.776128 0.432233
584 1 0.985063 0.369467 0.5 -0.891637 0.300814
585 1 0.0483625 0.48874 0.5 -0.792586 0.425316
586 1 0.977689 0.395984 0.5 -0.59814 0.64317
587 1 0.0643594 0.33748 0.5 -0.675778 0.352595
588 1 0.0357388 0.283781 0.5 -0.650652 0.464784
589 1 0.110404 0.350842 0.5 -0.648257 0.109938
590 1 0.102595 0.268602 0.5 -0.94575 0.221721
591 1 0.0187673 0.344312 0.5 -0.606773 0.234329
592 1 0.0209413 0.387977 0.5 -0.881284 0.279347
593 1 0.0164705 0.424829 0.5 -0.526597 0.815334
594 1 0.029793 0.500401 0.5 -0.838687 0.177677
595 1 0.112222 0.282525 0.5 -0.795852 0.540511
596 1 0.0840276 0.387961 0.5 -0.653529 0.200813
597 1 0.0821401 0.357735 0.5 -0.564243 0.622961
598 1 0.0306778 0.263372 0.5 -0.826793 0.189549
599 1 0.122005 0.384648 0.5 -0.64765 0.347352
600 1 0.0409568 0.494764 0.5 -0.650602 0.264617
601 1 0.0593954 0.267581 0.5 -0.702319 0.464065
602 1 0.999236 0.304373 0.5 -0.741435 -0.0158555
603 1 0.0299355 0.37176 0.5 -0.967965 -0.0710207
604 1 0.0654476 0.486883 0.5 -0.861908 -0.020072
605 1 0.00513736 0.280784 0.5 -0.714913 0.38145
606 1 0.0550037 0.353748 0.5 -0.626785 0.66211
607 1 0.0287002 0.4809 0.5 -0.644117 0.38215
608 1 0.0996785 0.355465 0.5 -0.828834 0.0288484
609 1 0.0534127 0.304331 0.5 -0.75963 0.144095
610 1 0.0644461 0.455406 0.5 -0.709592 0.569606
611 1 0.0960937 0.403306 0.5 -0.972604 -0.149521
612 1 0.0964823 0.413802 0.5 -0.813951 0.18753
613 1 0.119823 0.47382 0.5 -0.929477 0.156173
614 1 0.118698 0.257309 0.5 -0.872378 0.439912
615 1 0.087758 0.407792 0.5 -0.943828 -0.0302561
616 1 0.0869652 0.2794 0.5 -0.629001 0.613824
617 1 0.0534363 0.344102 0.5 -0.824749 0.471025
618 1 0.050616 0.262563 0.5 -0.729662 0.570584
619 1 0.0256264 0.299611 0.5 -0.955324 0.0227917
620 1 0.0488465 0.468313 0.5 -0.576951 0.478161
621 1 0.110225 0.469796 0.5 -0.940548 0.108096
622 1 0.989861 0.322037 0.5 -0.779329 0.548118
623 1 0.12589 0.427012 0.5 -0.963399 -0.144145
624 1 0.0434491 0.27798 0.5 -0.780212 0.602588
625 1 0.0695512 0.420276 0.5 -0.719627 0.620122