# LAMMPS data file written by Ovito 3.7.11
10725 atoms
1 atom types
-58.36 58.36 xlo xhi
-58.36 58.36 ylo yhi
-0.5 0.5 zlo zhi

Atoms  # atomic

1 1 -50.075494528 -42.7387788 0.0
2 1 -50.369442176 -45.0375792 0.0
3 1 -47.668541376 -53.26120352 0.0
4 1 -52.937282176 -38.50265984 0.0
5 1 -46.992475792 -43.66530216 0.0
6 1 -44.71694936 -39.07808944 0.0
7 1 -50.539608264 -32.66677656 0.0
8 1 -45.6760376 -39.72343432 0.0
9 1 -46.2993224 -47.883084408 0.0
10 1 -57.091101864 -49.546110968 0.0
11 1 -53.980922384 -52.727489648 0.0
12 1 -50.630719896 -33.82522256 0.0
13 1 -53.885258672 -51.518025336 0.0
14 1 -47.179356184 -47.067596784 0.0
15 1 -52.67509404 -48.7536522 0.0
16 1 -51.359531248 -31.93330808 0.0
17 1 -57.109485264 -50.762531792 0.0
18 1 -48.837970728 -55.963925152 0.0
19 1 -53.56940268 -45.672536 0.0
20 1 -56.32813824 -53.625965192 0.0
21 1 -44.62450712 -41.47808608 0.0
22 1 -44.75943544 -40.36481072 0.0
23 1 -44.6039644 -53.96350776 0.0
24 1 -53.274066064 -40.78581976 0.0
25 1 -45.4315092 -49.706682672 0.0
26 1 -51.87392796 -39.21920392 0.0
27 1 -51.328892248 -46.999514008 0.0
28 1 -45.8044296 -30.5473748 0.0
29 1 -46.08969328 -32.8940304 0.0
30 1 -52.092871336 -56.500988888 0.0
31 1 -49.975091984 -41.64371176 0.0
32 1 -46.93042744 -42.51677736 0.0
33 1 -47.695795496 -37.98990888 0.0
34 1 -50.868455192 -38.7580432 0.0
35 1 -44.82724976 -43.78785816 0.0
36 1 -45.33544864 -35.8820624 0.0
37 1 -50.926768504 -55.951809616 0.0
38 1 -53.359003208 -41.88999096 0.0
39 1 -55.526727048 -31.52163664 0.0
40 1 -48.127169272 -45.2751044 0.0
41 1 -44.99917832 -44.88887792 0.0
42 1 -49.328019648 -33.33044648 0.0
43 1 -44.81791216 -32.43602112 0.0
44 1 -52.024835248 -55.376963616 0.0
45 1 -52.92154832 -37.4052584 0.0
46 1 -56.784326688 -46.0396204 0.0
47 1 -54.949394912 -37.14287184 0.0
48 1 -46.897092208 -41.29273472 0.0
49 1 -51.952632256 -54.270061168 0.0
50 1 -56.802383272 -48.489970048 0.0
51 1 58.041938 -43.42427536 0.0
52 1 -47.55038572 -36.88375344 0.0
53 1 -49.781441832 -53.029362584 0.0
54 1 -49.782994208 -50.651145896 0.0
55 1 -43.71654224 -39.894896 0.0
56 1 -43.84224968 -31.81542088 0.0
57 1 -47.898141288 -40.66338048 0.0
58 1 -56.192462912 -54.987970872 0.0
59 1 -54.847965232 -50.990170808 0.0
60 1 -52.896663616 -34.79866736 0.0
61 1 -48.674492696 -37.38063048 0.0
62 1 -49.216131856 -44.51712472 0.0
63 1 -44.82538224 -31.1601548 0.0
64 1 -54.388590328 -41.25398368 0.0
65 1 -49.149379688 -43.3929944 0.0
66 1 -47.381130048 -34.62428768 0.0
67 1 -54.580746464 -47.170555496 0.0
68 1 -49.70480348 -36.84757024 0.0
69 1 -46.501248 -51.54979652 0.0
70 1 -52.220212856 -42.81137864 0.0
71 1 -49.189402976 -30.96803368 0.0
72 1 -57.4749554264 -42.81849856 0.0
73 1 -42.4376412 -40.64809016 0.0
74 1 -58.0328081616 -47.759104424 0.0
75 1 -48.457907064 -36.2374748 0.0
76 1 -48.97787132 -40.99474856 0.0
77 1 -50.83120984 -54.84165068 0.0
78 1 -54.380209832 -44.91525664 0.0
79 1 58.0787048 -41.13061064 0.0
80 1 -45.97098904 -43.04190064 0.0
81 1 -49.677911192 -34.45796168 0.0
82 1 -54.92160388 -35.8995704 0.0
83 1 -47.206598632 -33.4029296 0.0
84 1 -47.962337288 -41.81423968 0.0
85 1 -53.402458064 -44.29885832 0.0
86 1 -44.04919424 -45.65246016 0.0
87 1 -55.712276832 -45.49418784 0.0
88 1 -52.828510808 -49.86144172 0.0
89 1 -44.03763896 -34.33587256 0.0
90 1 -55.774698688 -33.9993688 0.0
91 1 -53.217118376 -54.5365446 0.0
92 1 -56.11296492 -38.77811904 0.0
93 1 -47.612002208 -51.946247672 0.0
94 1 56.82501528 -45.26086456 0.0
95 1 -54.419801256 -31.10226168 0.0
96 1 -51.767864496 -36.7562952 0.0
97 1 -56.950302528 -35.5050568 0.0
98 1 -55.340558648 -56.789567416 0.0
99 1 -44.12576256 -47.948365904 0.0
100 1 -43.01400456 -33.755424 0.0
101 1 -55.380453544 -43.16165536 0.0
102 1 -55.22163264 -54.383419632 0.0
103 1 -43.48415272 -50.946657592 0.0
104 1 -51.446452632 -30.71195 0.0
105 1 58.06609904 -42.2578924 0.0
106 1 -54.392488776 -43.71327408 0.0
107 1 -57.7440440488 -44.16077856 0.0
108 1 -45.63180072 -38.39667808 0.0
109 1 -49.375956552 57.00207952 0.0
110 1 -54.000788128 -36.52063752 0.0
111 1 -48.801425696 -53.620152536 0.0
112 1 -55.0921318 -39.50049912 0.0
113 1 -50.91524824 -39.92594352 0.0
114 1 -46.963085696 -31.12000312 0.0
115 1 -54.362946944 -42.4213004 0.0
116 1 -51.15452424 -40.99766656 0.0
117 1 -55.855107096 -35.28282192 0.0
118 1 -49.335839888 -45.63845376 0.0
119 1 -52.490057824 -47.52995972 0.0
120 1 -46.747188712 -38.70248448 0.0
121 1 57.76204344 -45.88765096 0.0
122 1 -47.89961196 -30.5205292 0.0
123 1 -53.151510064 -39.632276 0.0
124 1 -48.198263424 -44.07568968 0.0
125 1 -58.2373809712 -48.88367828 0.0
126 1 -50.457717512 57.80277872 0.0
127 1 -49.91600832 -56.609351736 0.0
128 1 -48.806841504 -54.842035856 0.0
129 1 -45.95289744 -41.93504488 0.0
130 1 -53.41206412 -30.4440776 0.0
131 1 -45.28175744 -34.70599168 0.0
132 1 -51.208764024 -57.1487382 0.0
133 1 -49.058851656 -57.398799128 0.0
134 1 -52.92061456 -52.218333664 0.0
135 1 -52.20850584 -40.3145044 0.0
136 1 -55.616601448 -46.66045408 0.0
137 1 -54.121149792 -56.324379856 0.0
138 1 -46.767696416 -29.97357928 0.0
139 1 -51.892766568 -52.944752256 0.0
140 1 -56.840258912 -34.3728728 0.0
141 1 -45.82088712 -29.41215608 0.0
142 1 -47.883878104 -56.66528396 0.0
143 1 -50.337460896 -31.5132328 0.0
144 1 -48.507291296 -48.869881976 0.0
145 1 -47.706825536 -54.387890008 0.0
146 1 -51.404515136 -45.86255616 0.0
147 1 -52.92866824 -36.07359992 0.0
148 1 -47.391553144 -35.71351872 0.0
149 1 -56.513512944 -30.72747376 0.0
150 1 -49.624406744 -49.388422248 0.0
151 1 -45.61207504 -53.349420496 0.0
152 1 -56.229381448 -39.88100632 0.0
153 1 -49.575909584 -35.63613336 0.0
154 1 -46.6710756 -53.792186144 0.0
155 1 -47.688733936 -49.695979448 0.0
156 1 -52.318502768 -41.5219728 0.0
157 1 -54.27579212 -55.166762568 0.0
158 1 -52.38055112 -31.36604888 0.0
159 1 -57.6606265992 -41.71491096 0.0
160 1 -55.258259376 -55.681346032 0.0
161 1 -55.90181844 -47.832591336 0.0
162 1 -57.3767799 -53.19122988 0.0
163 1 -49.77822036 -51.79911044 0.0
164 1 -48.80349164 -29.88603928 0.0
165 1 -49.773411496 -54.188824048 0.0
166 1 -53.92656588 -49.161787024 0.0
167 1 -44.3191676 -36.68941464 0.0
168 1 -55.062846752 -53.192933992 0.0
169 1 -43.82999408 -44.4854936 0.0
170 1 -52.54506796 57.93548936 0.0
171 1 -45.69167808 -54.438231344 0.0
172 1 -53.991660624 -37.6649604 0.0
173 1 -48.445301304 -47.719933192 0.0
174 1 -50.448870136 -47.733040848 0.0
175 1 -51.868220352 -34.41244088 0.0
176 1 -57.143112296 -38.08188424 0.0
177 1 -48.287916056 -32.84360736 0.0
178 1 -50.682298464 -36.18483408 0.0
179 1 -45.36392832 -37.24932048 0.0
180 1 -45.86594104 -40.84569712 0.0
181 1 -49.424780528 -48.25163948 0.0
182 1 -53.406589952 -43.16900872 0.0
183 1 58.33385472 -53.76759324 0.0
184 1 -44.55996096 -51.407351432 0.0
185 1 -54.633795704 -46.00203656 0.0
186 1 -54.763751752 -33.49723936 0.0
187 1 -47.634179008 -55.510421264 0.0
188 1 -46.72540876 -52.6763196 0.0
189 1 -46.03413456 -45.40664784 0.0
190 1 -57.4760525944 -28.89858808 0.0
191 1 -53.965620392 -35.28130456 0.0
192 1 -47.185530672 -32.30949664 0.0
193 1 -57.923829032 -45.39159096 0.0
194 1 -45.97974304 -44.28928728 0.0
195 1 -55.298329352 -30.42120048 0.0
196 1 -48.276710936 -31.71819312 0.0
197 1 -55.704304856 -48.99823896 0.0
198 1 -45.14811304 -33.47424552 0.0
199 1 -56.978023528 -47.191016512 0.0
200 1 -43.69109728 -43.33194984 0.0
201 1 -54.099299808 -53.845585544 0.0
202 1 -47.149487536 -44.75826824 0.0
203 1 -46.42958192 -36.41582296 0.0
204 1 -53.64136056 -48.108225616 0.0
205 1 -51.291751944 -43.44540168 0.0
206 1 -44.4195468 -37.91520808 0.0
207 1 -56.030700664 -37.60274864 0.0
208 1 -50.865980728 -51.174436672 0.0
209 1 -50.329745704 -46.28776712 0.0
210 1 -44.83553688 -29.94369896 0.0
211 1 -49.371229392 -46.881124912 0.0
212 1 -55.70923044 -32.72151824 0.0
213 1 57.47222768 -37.81657968 0.0
214 1 -55.3716762 -44.35044856 0.0
215 1 -48.276127336 -33.96388592 0.0
216 1 57.81923624 -44.76212 0.0
217 1 -56.542226064 -41.24803096 0.0
218 1 -52.307145912 -43.9911844 0.0
219 1 -54.350341184 -29.8779856 0.0
220 1 -53.133290072 -56.827314664 0.0
221 1 -56.373857464 -42.52786576 0.0
222 1 -46.29500376 -35.25550944 0.0
223 1 -53.634847584 -33.06689272 0.0
224 1 -57.09557224 -36.94514816 0.0
225 1 -48.678881368 -50.174122928 0.0
226 1 -44.79106656 -28.7317952 0.0
227 1 -52.862324592 -51.035843344 0.0
228 1 -50.923488672 -53.562621248 0.0
229 1 -45.2360032 -47.431237944 0.0
230 1 -50.242976056 -43.845868 0.0
231 1 -46.52751 -49.275752432 0.0
232 1 -44.23734688 -46.80664588 0.0
233 1 -58.2489368348 -38.543862 0.0
234 1 -55.057722744 -38.32828016 0.0
235 1 -54.916083024 -49.75960352 0.0
236 1 57.36869704 -38.9272872 0.0
237 1 -42.56474928 -39.33860848 0.0
238 1 -57.4481565144 -40.55471416 0.0
239 1 -47.822063192 -39.16703008 0.0
240 1 -48.136273432 -42.94630696 0.0
241 1 -55.853928224 -36.49530928 0.0
242 1 -57.8810371456 -46.4971628 0.0
243 1 -48.787921192 -38.47943256 0.0
244 1 -54.091211112 -39.01412688 0.0
245 1 -46.09599616 -46.735691792 0.0
246 1 -49.368509816 -32.12262792 0.0
247 1 -56.050356312 -52.510075304 0.0
248 1 -54.8610262 -34.62802272 0.0
249 1 58.24654816 -39.86524912 0.0
250 1 -56.709719264 -43.65468064 0.0
251 1 -55.042234 -52.090758704 0.0
252 1 -57.1951764192 -39.258772 0.0
253 1 -51.467719016 -48.119652504 0.0
254 1 -49.840887328 -38.01500368 0.0
255 1 -50.927538856 -52.415368696 0.0
256 1 -53.049193312 -53.338974056 0.0
257 1 -51.1820118 -42.26349496 0.0
258 1 -44.31589944 -35.418684 0.0
259 1 -55.340955496 -41.8511232 0.0
260 1 -55.97412648 -50.155155928 0.0
261 1 -50.595633864 -48.828037856 0.0
262 1 -51.821707432 -50.512844368 0.0
263 1 -52.400241784 -46.38161 0.0
264 1 -54.772645816 -48.259389688 0.0
265 1 -49.838424536 -55.346126192 0.0
266 1 -56.60768264 -32.0052076 0.0
267 1 -49.950277312 -40.46495648 0.0
268 1 -53.874170272 -34.181452 0.0
269 1 -48.399745488 -35.09571976 0.0
270 1 -46.43331696 -37.53178288 0.0
271 1 -45.80536336 -27.898998 0.0
272 1 56.21923848 -40.77601528 0.0
273 1 -45.51449712 -50.855615992 0.0
274 1 -45.34140136 -48.596617112 0.0
275 1 -48.718064272 -51.3387084 0.0
276 1 -52.575963744 -32.56277904 0.0
277 1 -54.5803146 -32.20748336 0.0
278 1 -49.82759292 -39.25515368 0.0
279 1 -49.006514408 -42.20840312 0.0
280 1 -48.737416448 -52.490548048 0.0
281 1 -51.364550208 -44.55517544 0.0
282 1 -58.1087380232 -35.01763408 0.0
283 1 -51.883043792 -38.09437328 0.0
284 1 -47.613017672 -50.822199056 0.0
285 1 -53.160088984 -55.670852904 0.0
286 1 -50.864813528 -37.59341104 0.0
287 1 -55.44147476 -40.76469344 0.0
288 1 -48.792508288 -39.85976328 0.0
289 1 -45.84458128 -31.73453392 0.0
290 1 -50.280046328 -57.8322808672 0.0
291 1 -53.472338328 -31.78530712 0.0
292 1 -46.61248216 -55.014769784 0.0
293 1 -45.56363624 -52.139676056 0.0
294 1 -52.397837352 -45.24172248 0.0
295 1 -46.861399232 -40.12460096 0.0
296 1 -51.289242464 -29.49362664 0.0
297 1 -57.168335488 -51.978905928 0.0
298 1 -43.60203992 -38.78932416 0.0
299 1 -53.9287252 -50.296142016 0.0
300 1 -56.062039984 -51.329802664 0.0
301 1 -51.597441624 -33.25913056 0.0
302 1 -46.810894488 -56.24258248 0.0
303 1 57.5161144 -48.301794064 0.0
304 1 -49.230500088 58.17068016 0.0
305 1 -52.679867888 -33.67220264 0.0
306 1 56.64795104 -47.575107016 0.0
307 1 -47.169143184 -45.97005528 0.0
308 1 -56.736179688 -33.13750832 0.0
309 1 -44.82759992 -42.64458576 0.0
310 1 -45.10609384 -46.0828068 0.0
311 1 -52.33613916 -57.6096876568 0.0
312 1 -46.20898112 -34.0250472 0.0
313 1 -48.367005528 -46.38184344 0.0
314 1 -53.472221608 -46.918031776 0.0
315 1 -50.620693648 -49.970843376 0.0
316 1 -56.376658744 -29.60170936 0.0
317 1 -43.78365624 -29.51545328 0.0
318 1 -49.438833616 55.7915764 0.0
319 1 -52.409859512 -29.88895728 0.0
320 1 -46.5339296 -50.369418832 0.0
321 1 -56.916605464 -44.8945972 0.0
322 1 -55.26201776 -29.2155996 0.0
323 1 -43.61978136 -41.00326912 0.0
324 1 -51.925378136 -35.64173592 0.0
325 1 -54.163437448 -40.13230448 0.0
326 1 57.68675904 -47.04989036 0.0
327 1 -57.4914327888 -31.29555 0.0
328 1 57.56210208 -50.74833864 0.0
329 1 -50.723395576 -35.0154164 0.0
330 1 -47.389685624 -48.158193448 0.0
331 1 -51.696315136 -49.358051704 0.0
332 1 -51.904310176 -51.768634848 0.0
333 1 -54.273609456 -3.33340648 0.0
334 1 -45.18149496 -8.32435368 0.0
335 1 -57.5406220984 -2.23472112 0.0
336 1 -53.295799328 -6.25747592 0.0
337 1 -44.6302264 -13.60359928 0.0
338 1 -54.093697248 -16.04946688 0.0
339 1 -45.10270896 -18.48471296 0.0
340 1 -48.8549068 -15.8920116 0.0
341 1 -48.565347824 -11.01358248 0.0
342 1 57.15054736 -18.6057516 0.0
343 1 -45.93293832 -5.08443992 0.0
344 1 -54.876795072 -24.4785184 0.0
345 1 -51.228944912 -19.31902752 0.0
346 1 -50.808519472 -13.18153976 0.0
347 1 -54.309010632 -4.4417796 0.0
348 1 -49.63132824 -12.78445832 0.0
349 1 -54.424633464 -18.27344976 0.0
350 1 -49.160736544 -6.69482576 0.0
351 1 -56.165990816 -26.18041272 0.0
352 1 -54.944644408 -15.36233624 0.0
353 1 -43.58184736 -26.8946224 0.0
354 1 -46.706488448 -13.47614104 0.0
355 1 -45.12150088 -20.81747888 0.0
356 1 -44.32932224 -22.81619216 0.0
357 1 -45.6807064 -14.08028376 0.0
358 1 -47.49050836 -24.36961864 0.0
359 1 -47.282676728 -21.96331912 0.0
360 1 -46.03763616 -17.86889824 0.0
361 1 -44.09004624 -6.42788712 0.0
362 1 -55.278090104 -2.55488408 0.0
363 1 -52.247420288 -8.14367112 0.0
364 1 -50.086326144 -17.4951608 0.0
365 1 -46.18236896 -20.31488256 0.0
366 1 -53.434579408 -8.7353248 0.0
367 1 -54.286051808 -28.66561496 0.0
368 1 -55.75031588 -22.55287184 0.0
369 1 -51.646137208 0.32027968 0.0
370 1 -50.059352152 -16.37966776 0.0
371 1 -46.840926544 -27.42009584 0.0
372 1 -54.438219672 -19.52982384 0.0
373 1 -54.3179864 -5.65438368 0.0
374 1 -44.5263456 -26.31662496 0.0
375 1 -51.509131272 -10.04889168 0.0
376 1 -43.40840144 -25.79827144 0.0
377 1 -51.639939376 -24.02867952 0.0
378 1 -47.30906712 -20.69959168 0.0
379 1 -56.743451344 -11.50649104 0.0
380 1 -45.4122504 -24.56407416 0.0
381 1 -56.972269232 -12.86172696 0.0
382 1 -49.580356616 -24.26923944 0.0
383 1 -49.731812488 -25.4344552 0.0
384 1 -52.702149736 -11.7776316 0.0
385 1 -49.083678 -17.08804144 0.0
386 1 -54.470025872 -9.17991128 0.0
387 1 -49.518553376 -11.58025808 0.0
388 1 -43.59935536 -14.25104512 0.0
389 1 -57.9046472672 -23.56541784 0.0
390 1 -49.095431704 -28.73564696 0.0
391 1 -46.0425384 -6.32377288 0.0
392 1 -50.901486952 -14.46697712 0.0
393 1 -46.47568632 -24.99978992 0.0
394 1 -44.44475832 -11.32790944 0.0
395 1 -51.789737824 1.50533784 0.0
396 1 -56.54016012 -9.01615312 0.0
397 1 -54.144552152 -26.29503176 0.0
398 1 -51.649685496 -12.42122568 0.0
399 1 -47.353350688 -9.30211712 0.0
400 1 -53.382557304 -29.3247328 0.0
401 1 -47.06769016 -6.80139112 0.0
402 1 -51.12884584 -1.7729768 0.0
403 1 -47.048828208 -18.42576936 0.0
404 1 -55.8881622 -14.66516768 0.0
405 1 -47.29937936 -8.19269352 0.0
406 1 -54.578400392 -21.96798792 0.0
407 1 -46.723879728 -14.57202512 0.0
408 1 -51.370409552 -7.4589916 0.0
409 1 -54.849774392 1.00122416 0.0
410 1 -57.5083630248 -18.67484984 0.0
411 1 -55.114261912 -1.30948168 0.0
412 1 -56.485745256 -19.3183272 0.0
413 1 -47.25099892 -19.57546136 0.0
414 1 -58.1496775632 -13.22460944 0.0
415 1 -43.46080872 -1.65894136 0.0
416 1 -56.247029512 -27.40200424 0.0
417 1 -50.307685624 -30.40742752 0.0
418 1 -56.439232336 -4.28082272 0.0
419 1 -50.545817768 -22.38012624 0.0
420 1 -58.0450007328 -12.14331536 0.0
421 1 -46.19474128 -7.6229832 0.0
422 1 -54.720857152 -13.97418528 0.0
423 1 -45.32307632 -9.4525692 0.0
424 1 -45.132706 -19.64362584 0.0
425 1 -57.8194895224 -10.82484624 0.0
426 1 -53.035560416 -15.3918664 0.0
427 1 -52.8003346 -23.43877664 0.0
428 1 -53.338962384 -2.70451912 0.0
429 1 -56.116046328 -24.96547424 0.0
430 1 -46.66220488 -12.37068592 0.0
431 1 -56.066522032 -23.76279136 0.0
432 1 -55.331209376 -5.03401688 0.0
433 1 -45.48426664 -25.68353568 0.0
434 1 57.42087088 -13.7426128 0.0
435 1 -50.488181432 -23.5435912 0.0
436 1 -49.288393208 -19.39571256 0.0
437 1 -49.892220784 -15.11418952 0.0
438 1 -51.92919488 -16.21894432 0.0
439 1 -45.40781504 -23.2955612 0.0
440 1 -53.586630552 -11.11489544 0.0
441 1 -47.736717528 -14.08063392 0.0
442 1 -49.000374936 -5.32546672 0.0
443 1 -57.070524128 -13.97150072 0.0
444 1 -54.81235396 -11.47264224 0.0
445 1 -45.81971992 -3.85502816 0.0
446 1 -48.75843772 -1.7280396 0.0
447 1 58.16029208 -19.0889724 0.0
448 1 -56.456051688 -18.10840768 0.0
449 1 -56.580696976 -7.84031584 0.0
450 1 -49.982165216 -3.56556256 0.0
451 1 -46.635476 -26.1318572 0.0
452 1 -47.5219644 -11.62040976 0.0
453 1 -42.32022088 -12.53537784 0.0
454 1 -45.6421888 -15.43750392 0.0
455 1 -48.140206896 -6.21207184 0.0
456 1 -46.10276592 -18.99512952 0.0
457 1 -49.806746728 -26.61192656 0.0
458 1 57.87222712 -11.26348 0.0
459 1 -46.67095888 -15.83003328 0.0
460 1 -58.1279162864 -0.31245944 0.0
461 1 -45.59351656 -12.95113448 0.0
462 1 -45.31817408 -10.59981008 0.0
463 1 -55.300091824 -16.43254192 0.0
464 1 -45.73474776 -2.75120712 0.0
465 1 -57.87923032 -8.16012864 0.0
466 1 -57.353307508 -3.36340352 0.0
467 1 -44.32220232 -9.8896856 0.0
468 1 -46.836082664 -4.39695912 0.0
469 1 -57.2913887152 -16.31056952 0.0
470 1 -53.305650496 -5.04312104 0.0
471 1 -51.057144744 -28.32724368 0.0
472 1 -53.147319816 -27.00223824 0.0
473 1 -55.124965136 -26.79412648 0.0
474 1 -54.539707712 -20.6530204 0.0
475 1 -57.564868344 -5.84685496 0.0
476 1 -53.734934984 -13.4117116 0.0
477 1 58.2502832 -17.94756752 0.0
478 1 -46.759175856 -3.21376848 0.0
479 1 -51.209662768 -4.0694428 0.0
480 1 -48.703976168 -0.61604816 0.0
481 1 -48.591574808 -24.94843312 0.0
482 1 -47.847928344 -28.04734912 0.0
483 1 -50.07714028 -29.26882392 0.0
484 1 -50.177822952 -7.09050656 0.0
485 1 -50.021744968 -5.89214232 0.0
486 1 -52.341893456 -19.82033992 0.0
487 1 -52.26785796 -28.76821184 0.0
488 1 -51.40879876 -20.4254164 0.0
489 1 -44.13638408 -8.67719824 0.0
490 1 -49.253750712 -7.93707672 0.0
491 1 -43.25806608 -23.36489288 0.0
492 1 -46.1796844 -8.75715144 0.0
493 1 -48.980812664 -4.21639328 0.0
494 1 58.24199608 -16.84246256 0.0
495 1 -45.50189136 -11.75125288 0.0
496 1 -56.280995032 -3.09202952 0.0
497 1 -56.345459488 -16.84689792 0.0
498 1 -47.68788188 -15.39630176 0.0
499 1 -48.49838556 -9.88536696 0.0
500 1 -50.92336028 -15.6428144 0.0
501 1 -42.74893344 -15.14955568 0.0
502 1 -55.813379696 -10.89417792 0.0
503 1 -44.66255784 -14.87981576 0.0
504 1 -53.213838544 -17.89866184 0.0
505 1 -51.31775716 -8.9833548 0.0
506 1 -44.65497104 -27.51919112 0.0
507 1 -53.098542528 -1.5471236 0.0
508 1 -52.415543776 -9.31553992 0.0
509 1 57.861022 -21.56670456 0.0
510 1 -49.900577936 -27.72496848 0.0
511 1 -51.83430152 -26.4277424 0.0
512 1 -56.098328232 -0.668222 0.0
513 1 -50.228782904 -20.07513968 0.0
514 1 -55.2497038 -27.91172048 0.0
515 1 -49.498582584 -21.91604752 0.0
516 1 -56.24217396 -15.76046816 0.0
517 1 -50.596054056 -12.10246336 0.0
518 1 -52.305663568 -5.61493232 0.0
519 1 -43.95301696 -7.60524176 0.0
520 1 -48.816762704 -27.52736152 0.0
521 1 -55.843038248 -12.32890016 0.0
522 1 -42.84160912 -7.19497096 0.0
523 1 -55.712171784 -13.48781304 0.0
524 1 -47.934616288 -2.54251176 0.0
525 1 -46.38161 -23.88277952 0.0
526 1 -47.879232648 -4.87095904 0.0
527 1 -43.38027192 -12.98346592 0.0
528 1 -46.23197496 -21.41531872 0.0
529 1 -55.2820936 -3.84102176 0.0
530 1 -51.0436986 -6.37279528 0.0
531 1 -57.5629331264 -19.82209072 0.0
532 1 -54.081955216 -0.89652632 0.0
533 1 -47.751482608 -3.71858248 0.0
534 1 -53.252788008 -3.82514784 0.0
535 1 -56.502786376 -6.6594596 0.0
536 1 -50.31962608 -8.47130416 0.0
537 1 -43.028828 -21.0837172 0.0
538 1 -56.742716008 -10.25571952 0.0
539 1 -48.407098848 -21.58129456 0.0
540 1 57.9724896 -10.08554176 0.0
541 1 -53.322866696 -19.01077 0.0
542 1 -52.867005064 -24.66013472 0.0
543 1 -47.809597496 -29.38052496 0.0
544 1 -44.15657664 -20.2328284 0.0
545 1 -44.63757976 -2.25584744 0.0
546 1 -45.03477792 -5.7210308 0.0
547 1 -43.86139176 -17.99974136 0.0
548 1 -56.362617328 -28.50886 0.0
549 1 -54.303594824 -6.87936008 0.0
550 1 -48.761367392 -26.16372176 0.0
551 1 -51.8636566 -13.5780376 0.0
552 1 -43.15768688 -10.65992088 0.0
553 1 -51.61247516 -11.30760016 0.0
554 1 -50.593346152 0.69588464 0.0
555 1 -47.859320216 -26.80789944 0.0
556 1 -53.416464464 -20.31301504 0.0
557 1 -43.24032464 -9.4712444 0.0
558 1 -54.585170152 -7.97699496 0.0
559 1 -45.16877248 -7.03261344 0.0
560 1 -50.575919856 -10.83033208 0.0
561 1 -56.353419792 -1.91934368 0.0
562 1 -48.47591696 -23.79057072 0.0
563 1 -46.3384236 -22.59162288 0.0
564 1 -41.99713992 -9.080816 0.0
565 1 -57.151959672 -1.05561568 0.0
566 1 -52.3209072 -4.42987416 0.0
567 1 -49.397001168 -20.84058944 0.0
568 1 -52.882808952 -14.21194392 0.0
569 1 -43.36603208 -24.56419088 0.0
570 1 -50.589692816 -24.7195452 0.0
571 1 -55.621597064 -21.10986248 0.0
572 1 -52.165797992 -2.21989768 0.0
573 1 -51.516192832 -21.73513152 0.0
574 1 -56.877469248 -22.95578928 0.0
575 1 -52.736593808 -12.91880304 0.0
576 1 -47.67212468 -1.13696952 0.0
577 1 -54.60908608 -10.38014304 0.0
578 1 -53.57342952 -21.40539752 0.0
579 1 -57.6907520312 -9.33970096 0.0
580 1 -44.50265144 -0.9991232 0.0
581 1 -44.78674792 -16.20972344 0.0
582 1 -53.695390248 -22.64262952 0.0
583 1 -56.551341896 -5.43144848 0.0
584 1 57.41783616 -14.88751928 0.0
585 1 -52.087023664 -1.06950536 0.0
586 1 56.68413424 -11.93998912 0.0
587 1 -50.191537552 -18.6833704 0.0
588 1 -53.952466048 -25.0790428 0.0
589 1 -44.88946152 -17.34669296 0.0
590 1 -45.56503688 -26.82062192 0.0
591 1 -55.376123232 -17.57931592 0.0
592 1 -54.747726096 -12.63680752 0.0
593 1 -55.447299088 -8.68618568 0.0
594 1 -53.937735984 0.25888496 0.0
595 1 -44.4808248 -25.19552936 0.0
596 1 -47.668844848 -12.82367624 0.0
597 1 -47.790233648 -16.52148256 0.0
598 1 -54.167557664 -27.47402048 0.0
599 1 -44.4948312 -12.4295128 0.0
600 1 -52.981880888 -0.42812896 0.0
601 1 -50.885729752 -27.03048448 0.0
602 1 -57.7985254432 -22.1768 0.0
603 1 -53.98480916 -14.79472688 0.0
604 1 -49.931847224 -1.26302712 0.0
605 1 -57.072590072 -25.4875628 0.0
606 1 -51.107532768 -16.97587352 0.0
607 1 -54.215984792 -2.00980168 0.0
608 1 -45.86208928 -16.65349288 0.0
609 1 -51.81539288 -22.87396856 0.0
610 1 -50.299036672 -4.69669608 0.0
611 1 -46.5181724 -11.08291416 0.0
612 1 -46.38662896 -9.95399832 0.0
613 1 -43.61569616 -3.05199456 0.0
614 1 -43.76929968 -28.19593368 0.0
615 1 -47.521765976 -10.5123868 0.0
616 1 -47.54711756 -25.46515256 0.0
617 1 -51.247211592 -18.2211592 0.0
618 1 -52.110250944 -27.57930192 0.0
619 1 -54.74874156 -23.1724216 0.0
620 1 -52.087723984 -3.32745376 0.0
621 1 -44.76760584 -3.45946408 0.0
622 1 58.05384344 -20.32071856 0.0
623 1 -43.08812176 -8.32762184 0.0
624 1 -52.858005952 -25.86725296 0.0
625 1 -49.386484696 -9.1426776 0.0
626 1 -51.826598 -25.12713144 0.0
627 1 -48.670851032 -13.36759144 0.0
628 1 -55.542460904 -19.99390256 0.0
629 1 -49.834759528 -2.42217344 0.0
630 1 -57.7700457632 -21.0072656 0.0
631 1 -46.842910784 -28.7487196 0.0
632 1 -48.196606 -18.8899648 0.0
633 1 -55.576613176 -9.80996584 0.0
634 1 -50.381382632 -9.69499664 0.0
635 1 -52.169369624 -17.36723568 0.0
636 1 -53.2275298 -7.64072464 0.0
637 1 -51.87830496 -14.972258 0.0
638 1 -48.519640272 -12.1196212 0.0
639 1 -50.883336992 -2.87644768 0.0
640 1 -48.962125792 -3.0779064 0.0
641 1 -42.61995784 -4.94565984 0.0
642 1 -43.30685504 -11.823736 0.0
643 1 -55.41416228 -18.83090448 0.0
644 1 -48.317072712 -20.1009348 0.0
645 1 -44.73445736 -4.58779632 0.0
646 1 -48.32108788 -8.63949768 0.0
647 1 -53.663630736 -12.29633528 0.0
648 1 -53.125306424 -16.6343508 0.0
649 1 -43.6410244 -4.17659176 0.0
650 1 -52.43838588 -20.9343156 0.0
651 1 -45.08204952 -21.97860944 0.0
652 1 -55.459309576 -7.30457104 0.0
653 1 -53.20255172 -28.13839072 0.0
654 1 -47.79555608 -17.62600392 0.0
655 1 -46.844836664 -17.09142632 0.0
656 1 -55.139333368 -25.582106 0.0
657 1 -45.54857936 -1.55039176 0.0
658 1 -56.655584528 -20.6057488 0.0
659 1 -49.510184552 -10.4306828 0.0
660 1 -57.4738057344 -17.41135584 0.0
661 1 -44.41242688 -24.05494152 0.0
662 1 -49.480210856 -23.14580944 0.0
663 1 -52.279845104 -18.66282768 0.0
664 1 -57.2245606792 -15.05524592 0.0
665 1 -49.1761786 -18.25220672 0.0
666 1 -47.003739272 -5.5401148 0.0
667 1 -54.232465656 -17.13437928 0.0
668 1 -51.256117328 -5.28263048 0.0
669 1 -52.63756856 -22.11423808 0.0
670 1 -50.837489376 -0.53726216 0.0
671 1 -53.831275672 -23.98992848 0.0
672 1 -48.239302176 -7.37063456 0.0
673 1 -52.247630384 -6.74723304 0.0
674 1 -50.743097912 -25.91837632 0.0
675 1 58.34937848 -1.51712656 0.0
676 1 -43.75879488 -5.27527712 0.0
677 1 -48.810413136 -14.54786408 0.0
678 1 -46.952557552 -2.04154952 0.0
679 1 -47.296893224 -23.19833344 0.0
680 1 -48.385295552 -22.69608728 0.0
681 1 -56.768394408 -21.71377176 0.0
682 1 -50.546214616 -21.1502476 0.0
683 1 -55.519105232 -6.14834272 0.0
684 1 57.75725792 16.44479752 0.0
685 1 -57.029380328 0.05322432 0.0
686 1 -54.19548876 20.78771528 0.0
687 1 -57.7699605576 1.98972584 0.0
688 1 -45.14601208 3.39795264 0.0
689 1 -48.769736216 11.06633992 0.0
690 1 -49.10725544 18.91879464 0.0
691 1 -53.57033644 16.55136288 0.0
692 1 -44.82153048 9.5832956 0.0
693 1 -48.072859456 9.12878792 0.0
694 1 -44.61318528 25.5797716 0.0
695 1 -52.038001264 10.57985096 0.0
696 1 -54.153341168 8.29097176 0.0
697 1 -48.618653848 12.21206344 0.0
698 1 -47.258340608 18.80861096 0.0
699 1 -56.743591408 3.66314048 0.0
700 1 -53.948964448 23.48441416 0.0
701 1 -52.997322944 24.17399592 0.0
702 1 -50.549902968 1.80344072 0.0
703 1 -52.590973936 18.30951624 0.0
704 1 -45.8511176 22.96827832 0.0
705 1 -56.097534536 22.29165248 0.0
706 1 -55.901514968 15.64024656 0.0
707 1 -53.50900008 5.27446008 0.0
708 1 -46.14910376 5.3160124 0.0
709 1 -51.732556696 25.87612368 0.0
710 1 -49.381804224 2.3670816 0.0
711 1 -45.79532544 24.05727592 0.0
712 1 -48.910605584 9.9322884 0.0
713 1 -54.314029592 7.093658 0.0
714 1 -52.527361536 17.1018144 0.0
715 1 -57.14920508 24.2643372 0.0
716 1 -47.289761632 17.6463132 0.0
717 1 -56.928907752 13.92913136 0.0
718 1 -57.4548795864 8.0822764 0.0
719 1 -53.771585064 15.43622 0.0
720 1 -52.90497408 2.06991248 0.0
721 1 -53.100690176 9.96368608 0.0
722 1 -53.187296416 7.57757912 0.0
723 1 -46.47358536 27.12210968 0.0
724 1 -58.3751583097 21.22704936 0.0
725 1 -47.629241752 26.600488 0.0
726 1 -49.240071128 17.70619056 0.0
727 1 -55.859589144 23.36886136 0.0
728 1 -50.134753272 20.88435944 0.0
729 1 57.91751448 3.91093704 0.0
730 1 -50.859129264 25.13833656 0.0
731 1 -51.554500336 15.43003384 0.0
732 1 -44.86973584 19.83387944 0.0
733 1 -55.478545032 17.98900312 0.0
734 1 -57.3267210264 9.21924592 0.0
735 1 -57.9696427992 26.12567104 0.0
736 1 -51.786224552 12.95872128 0.0
737 1 -53.472373344 19.13647744 0.0
738 1 -44.03121936 7.560538 0.0
739 1 -50.389518016 2.90889584 0.0
740 1 -53.197392696 20.26212512 0.0
741 1 -51.62741532 2.58441424 0.0
742 1 -47.610158032 25.44706096 0.0
743 1 -50.27573936 17.04485504 0.0
744 1 -44.67598064 22.1482036 0.0
745 1 -47.29926264 27.85662864 0.0
746 1 -52.015614368 8.2106684 0.0
747 1 -52.348032928 19.45769088 0.0
748 1 -58.1101444992 24.8426848 0.0
749 1 56.19962952 20.25465504 0.0
750 1 -55.15761172 21.59915272 0.0
751 1 -50.38137096 18.22034216 0.0
752 1 -48.401811432 4.14402688 0.0
753 1 -48.104420544 6.55581224 0.0
754 1 -42.75722056 20.9407352 0.0
755 1 -42.8875968 19.67233896 0.0
756 1 -56.35755168 8.54168632 0.0
757 1 -57.798074904 3.28776896 0.0
758 1 -54.60079896 16.13292168 0.0
759 1 -58.0970917016 23.54896032 0.0
760 1 -51.5350898 5.07813704 0.0
761 1 -45.13714136 17.50484856 0.0
762 1 -48.512707104 14.66166608 0.0
763 1 -51.175545512 7.50287832 0.0
764 1 -54.593293864 17.344592 0.0
765 1 -56.563667528 17.37715688 0.0
766 1 57.63330128 26.75899376 0.0
767 1 -55.5730182 16.87094224 0.0
768 1 -54.746652272 2.22281568 0.0
769 1 -56.830571152 1.26267696 0.0
770 1 -49.944628064 23.250624 0.0
771 1 -55.04240908 25.25073792 0.0
772 1 -53.736615752 13.17115168 0.0
773 1 -55.68985492 6.7213212 0.0
774 1 -53.84480352 1.50230312 0.0
775 1 -50.892791312 12.287698 0.0
776 1 57.23388544 19.56892504 0.0
777 1 -50.096422424 22.05587808 0.0
778 1 -48.161251512 17.01380752 0.0
779 1 -48.66336928 0.57461256 0.0
780 1 -54.822601976 13.70316144 0.0
781 1 -47.049983736 19.99401928 0.0
782 1 -45.02730784 5.943966 0.0
783 1 57.4676756 21.94464392 0.0
784 1 -49.957619 9.4391464 0.0
785 1 -58.0780535024 13.35288472 0.0
786 1 -45.34758752 14.96793936 0.0
787 1 -51.5811942 17.76746856 0.0
788 1 -52.863468448 11.31343616 0.0
789 1 -50.290877944 5.51700424 0.0
790 1 -54.970848048 26.55309968 0.0
791 1 -57.8937829696 0.78529216 0.0
792 1 -54.019813488 24.76144768 0.0
793 1 -56.04497552 11.98866136 0.0
794 1 -52.13643124 6.8841456 0.0
795 1 -47.453578152 15.16928136 0.0
796 1 -52.087362152 23.52771728 0.0
797 1 -46.695248312 24.75724576 0.0
798 1 -56.707664992 6.19456384 0.0
799 1 -46.11268712 4.10189096 0.0
800 1 -47.481007352 4.95639808 0.0
801 1 -46.882303784 23.55339568 0.0
802 1 -45.04528272 8.3781616 0.0
803 1 -46.25461864 16.9588324 0.0
804 1 -49.419154624 4.71362048 0.0
805 1 -52.789783112 26.46415904 0.0
806 1 -46.03074968 6.55978072 0.0
807 1 -52.015812792 22.16267688 0.0
808 1 -49.924949072 24.479102 0.0
809 1 -49.062399944 20.12988136 0.0
810 1 -44.18120456 16.72410848 0.0
811 1 -50.726815472 11.21924312 0.0
812 1 -45.58126096 0.88018552 0.0
813 1 -42.66489504 22.09731368 0.0
814 1 -54.926366056 24.08820672 0.0
815 1 -46.994168232 9.74296856 0.0
816 1 -57.919043512 15.6865844 0.0
817 1 -50.108911464 19.56262216 0.0
818 1 -52.945440904 21.57674248 0.0
819 1 -49.486350328 15.19939512 0.0
820 1 -54.85040468 22.839186 0.0
821 1 -49.849758048 10.5695796 0.0
822 1 -52.80838828 12.46266128 0.0
823 1 -54.46995584 5.84977296 0.0
824 1 -49.132338568 7.35487736 0.0
825 1 -48.098129336 7.73421736 0.0
826 1 -47.289504848 16.3215412 0.0
827 1 -55.071810848 10.24824944 0.0
828 1 -44.21773792 4.01610176 0.0
829 1 -46.82211128 21.13052192 0.0
830 1 -48.96795012 22.48155592 0.0
831 1 -55.751588128 2.95733464 0.0
832 1 -48.236267456 18.23178072 0.0