# LAMMPS data file written by Ovito 3.7.11
10725 atoms
1 atom types
-58.36 58.36 xlo xhi
-58.36 58.36 ylo yhi
-0.5 0.5 zlo zhi

Atoms  # atomic

1 1 -50.8426484 -43.10609664 0.0
2 1 -51.002508112 -45.46687536 0.0
3 1 -48.481321096 -53.326636752 0.0
4 1 -53.555314576 -38.55483368 0.0
5 1 -47.629206736 -43.97274264 0.0
6 1 -45.03069272 -39.28550088 0.0
7 1 -51.06955208 -32.72338576 0.0
8 1 -45.98861376 -39.92967856 0.0
9 1 -46.930357408 -48.253285232 0.0
10 1 -57.792542376 -49.732571168 0.0
11 1 -54.701901824 -52.78679508 0.0
12 1 -51.081200736 -33.8412132 0.0
13 1 -54.772342344 -51.663551832 0.0
14 1 -47.979868632 -47.6089208 0.0
15 1 -53.43050588 -48.874772544 0.0
16 1 -52.037242584 -32.08947944 0.0
17 1 -57.7978157856 -50.979024048 0.0
18 1 -49.755016424 -56.290239256 0.0
19 1 -54.027913856 -45.78190264 0.0
20 1 -56.779646216 -53.988462496 0.0
21 1 -45.06956048 -41.71117592 0.0
22 1 -44.96638 -40.46845808 0.0
23 1 -45.47399528 -54.12213024 0.0
24 1 -53.611958792 -41.05240824 0.0
25 1 -45.98196072 -50.020437704 0.0
26 1 -52.700690736 -39.34782936 0.0
27 1 -51.96129288 -46.975551392 0.0
28 1 -46.62298696 -30.67144816 0.0
29 1 -46.848676752 -33.06432488 0.0
30 1 -52.891072728 -56.640200832 0.0
31 1 -50.786984632 -41.9999412 0.0
32 1 -47.440272072 -42.85281424 0.0
33 1 -48.1627572 -38.53884304 0.0
34 1 -51.494284488 -38.89192104 0.0
35 1 -45.4892856 -43.99095096 0.0
36 1 -46.086892 -36.28673064 0.0
37 1 -51.773642136 -56.157038392 0.0
38 1 -53.803589688 -42.18529256 0.0
39 1 -56.089352464 -31.83876488 0.0
40 1 -48.826298728 -45.74070048 0.0
41 1 -45.67977264 -45.20588944 0.0
42 1 -49.968368912 -33.49327088 0.0
43 1 -45.82859064 -32.56114496 0.0
44 1 -52.815111352 -55.51419132 0.0
45 1 -53.56245784 -37.35658616 0.0
46 1 -57.2654628688 -46.04382232 0.0
47 1 -55.738095296 -37.31316632 0.0
48 1 -47.373041352 -41.72821704 0.0
49 1 -52.540667616 -54.302322576 0.0
50 1 -57.8107308536 -48.382646008 0.0
51 1 57.3667128 -43.68292688 0.0
52 1 -48.219214664 -37.27126384 0.0
53 1 -50.487516128 -53.254340384 0.0
54 1 -50.502561336 -50.91752428 0.0
55 1 -43.97390984 -39.95197208 0.0
56 1 -44.6331444 -32.24658456 0.0
57 1 -48.368487872 -41.00408616 0.0
58 1 -56.884087272 -55.155790888 0.0
59 1 -55.806178072 -50.93724996 0.0
60 1 -53.227891632 -35.1309692 0.0
61 1 -49.37501112 -37.65655656 0.0
62 1 -49.698605648 -44.99019088 0.0
63 1 -45.56772144 -31.4945576 0.0
64 1 -54.681755952 -41.3410568 0.0
65 1 -49.6284686 -43.79369416 0.0
66 1 -48.072579328 -34.8835228 0.0
67 1 -55.374372432 -47.446936784 0.0
68 1 -50.346565056 -36.94328064 0.0
69 1 -47.164882904 -51.76438624 0.0
70 1 -52.95230404 -42.90603856 0.0
71 1 -49.812407648 -31.18093096 0.0
72 1 -58.1961064448 -43.25281368 0.0
73 1 -42.99357856 -40.7049328 0.0
74 1 57.96922144 -47.830618768 0.0
75 1 -49.30789712 -36.51165008 0.0
76 1 -49.580123176 -41.49232592 0.0
77 1 -51.547193664 -54.815003504 0.0
78 1 -55.102064672 -45.1858136 0.0
79 1 57.50981152 -41.30685784 0.0
80 1 -46.46868312 -43.42182424 0.0
81 1 -50.089419224 -34.60654624 0.0
82 1 -55.429114112 -36.12157184 0.0
83 1 -47.886060768 -33.51474736 0.0
84 1 -48.368604592 -42.19463016 0.0
85 1 -54.107867056 -44.54303656 0.0
86 1 -44.64388264 -46.01405872 0.0
87 1 -56.133986192 -45.57647544 0.0
88 1 -53.539720784 -50.122626064 0.0
89 1 -44.78453024 -34.63455904 0.0
90 1 -56.480247744 -34.21495064 0.0
91 1 -53.608830696 -54.719538216 0.0
92 1 -56.859517712 -38.90125864 0.0
93 1 -48.42315952 -52.153402328 0.0
94 1 56.27409688 -45.3527232 0.0
95 1 -54.972202 -31.36394792 0.0
96 1 -52.522097464 -36.9809812 0.0
97 1 -57.7793086624 -36.01325568 0.0
98 1 -56.021911648 -56.923106768 0.0
99 1 -44.81837904 -48.306136048 0.0
100 1 -43.76801576 -34.07943872 0.0
101 1 -56.096250616 -43.22935296 0.0
102 1 -55.855819088 -54.663162456 0.0
103 1 -43.9929352 -51.372989064 0.0
104 1 -51.860493488 -30.95892952 0.0
105 1 57.4986064 -42.4703228 0.0
106 1 -55.137932728 -44.0396232 0.0
107 1 58.26977544 -44.34858104 0.0
108 1 -46.1971924 -38.8099836 0.0
109 1 -48.989753416 57.28664288 0.0
110 1 -54.486716832 -36.74427304 0.0
111 1 -49.529746824 -53.86680524 0.0
112 1 -55.912159832 -39.52045824 0.0
113 1 -51.535941856 -40.01698512 0.0
114 1 -47.635311192 -31.18093096 0.0
115 1 -54.880938632 -42.54257248 0.0
116 1 -51.6672752 -41.1268756 0.0
117 1 -56.437901728 -35.42930552 0.0
118 1 -49.870907712 -46.1820188 0.0
119 1 -53.26616412 -47.667257456 0.0
120 1 -47.25210776 -39.1432192 0.0
121 1 57.24310632 -46.05152584 0.0
122 1 -48.662703976 -30.53967128 0.0
123 1 -53.774398016 -39.64651584 0.0
124 1 -48.695023744 -44.43040176 0.0
125 1 57.992332 -49.039756264 0.0
126 1 -52.094773872 58.2555356 0.0
127 1 -50.79607712 -56.680492576 0.0
128 1 -49.642288248 -55.045630552 0.0
129 1 -46.3471776 -42.1936964 0.0
130 1 -53.896907328 -30.6909404 0.0
131 1 -45.83430992 -35.1076252 0.0
132 1 -51.878958592 -57.3158800728 0.0
133 1 -49.8683282 -57.5309962 0.0
134 1 -53.624191048 -52.422967168 0.0
135 1 -52.663153584 -40.53498848 0.0
136 1 -56.35078192 -46.67341 0.0
137 1 -54.971431648 -56.551038424 0.0
138 1 -47.542658856 -30.06135272 0.0
139 1 -52.765540368 -53.117976408 0.0
140 1 -57.4310161824 -34.948886 0.0
141 1 -46.50253192 -29.53109376 0.0
142 1 -48.863905912 -57.014440168 0.0
143 1 -50.892184368 -31.60357408 0.0
144 1 -49.033091552 -49.247973072 0.0
145 1 -48.583976336 -54.5283742 0.0
146 1 -52.014132024 -45.87574552 0.0
147 1 -53.378763904 -36.25428248 0.0
148 1 -48.308213664 -36.06776392 0.0
149 1 -57.118589424 -30.97130184 0.0
150 1 -50.383203464 -49.770843656 0.0
151 1 -46.52307464 -53.564523784 0.0
152 1 -56.897019848 -40.01850248 0.0
153 1 -50.202369168 -35.80701144 0.0
154 1 -47.58738596 -53.996457816 0.0
155 1 -48.092164944 -49.917747448 0.0
156 1 -52.727022768 -41.75809736 0.0
157 1 -54.875569512 -55.381585728 0.0
158 1 -52.91168548 -31.33383416 0.0
159 1 -58.068100788 -41.96037312 0.0
160 1 -55.921182288 -55.79466948 0.0
161 1 -56.542272752 -48.053588984 0.0
162 1 -57.979475292 -53.35101956 0.0
163 1 -50.482788968 -52.084619232 0.0
164 1 -49.614042008 -29.90786592 0.0
165 1 -50.547160048 -54.375260904 0.0
166 1 -54.524569128 -49.350534936 0.0
167 1 -44.92704536 -36.90429616 0.0
168 1 -55.764975912 -53.550995936 0.0
169 1 -44.4691528 -44.83343592 0.0
170 1 -53.174877408 57.83837832 0.0
171 1 -46.56240928 -54.733719696 0.0
172 1 -54.557519184 -37.97298448 0.0
173 1 -48.995250928 -48.154785224 0.0
174 1 -51.172884296 -47.861888056 0.0
175 1 -52.232795272 -34.3717056 0.0
176 1 -57.8979487064 -38.38535624 0.0
177 1 -48.987477376 -32.74556256 0.0
178 1 -51.309364992 -36.27085672 0.0
179 1 -45.93597304 -37.67173016 0.0
180 1 -46.03250048 -41.073768 0.0
181 1 -50.267942464 -48.6550238 0.0
182 1 -53.979930264 -43.3784044 0.0
183 1 57.61252512 -53.933067184 0.0
184 1 -45.09267104 -51.833239368 0.0
185 1 -55.258737928 -46.29687128 0.0
186 1 -55.33298352 -33.69636368 0.0
187 1 -48.76018852 -55.737581728 0.0
188 1 -47.367170336 -52.88390612 0.0
189 1 -46.85012408 -45.76194352 0.0
190 1 -58.0158440768 -29.30629104 0.0
191 1 -54.381050216 -35.55302872 0.0
192 1 -47.83337336 -32.41652888 0.0
193 1 -58.2555945436 -45.51309648 0.0
194 1 -46.59322336 -44.58984128 0.0
195 1 -55.985401632 -30.70973232 0.0
196 1 -48.636185192 -31.63999072 0.0
197 1 -56.688114392 -49.17606188 0.0
198 1 -46.03051624 -33.97929296 0.0
199 1 -57.4710674832 -47.16783592 0.0
200 1 -44.336092 -43.73334992 0.0
201 1 -54.726751512 -54.157951608 0.0
202 1 -47.768687136 -45.13340632 0.0
203 1 -47.03460004 -36.84313488 0.0
204 1 -54.461692064 -48.124391336 0.0
205 1 -51.93701512 -43.5925856 0.0
206 1 -44.84230664 -38.08305144 0.0
207 1 -56.785645624 -37.77269296 0.0
208 1 -51.502419872 -51.47066036 0.0
209 1 -50.835481792 -46.77168824 0.0
210 1 -45.59561752 -30.2228932 0.0
211 1 -49.903484264 -47.388880256 0.0
212 1 -56.210857984 -32.96137784 0.0
213 1 56.84193968 -38.22066432 0.0
214 1 -56.203983176 -44.46074896 0.0
215 1 -48.923759928 -33.98221096 0.0
216 1 57.2721696 -44.89739848 0.0
217 1 -56.98959048 -41.15990736 0.0
218 1 -53.104180104 -44.04405856 0.0
219 1 -54.790282208 -29.98641848 0.0
220 1 -54.103128224 -57.2831249392 0.0
221 1 -57.172677472 -42.64446904 0.0
222 1 -47.101935808 -35.66507992 0.0
223 1 -54.273644472 -33.15711728 0.0
224 1 -57.7189375768 -37.12349632 0.0
225 1 -49.292221624 -50.399625968 0.0
226 1 -45.51974952 -28.83497568 0.0
227 1 -53.719166112 -51.304987992 0.0
228 1 -51.601200008 -53.704517752 0.0
229 1 -45.78902256 -47.669977032 0.0
230 1 -50.817296816 -44.36480512 0.0
231 1 -47.01125604 -49.372454952 0.0
232 1 -44.60174672 -47.205664872 0.0
233 1 57.80219512 -38.96428744 0.0
234 1 -55.669405576 -38.41045104 0.0
235 1 -55.68874608 -49.805100976 0.0
236 1 56.79385104 -39.39089904 0.0
237 1 -42.95797896 -39.5604932 0.0
238 1 -58.2240363736 -40.79900912 0.0
239 1 -48.184222008 -39.80000264 0.0
240 1 -48.642954952 -43.2902808 0.0
241 1 -56.696494888 -36.6249852 0.0
242 1 58.21666784 -46.725023584 0.0
243 1 -49.454135608 -38.88223328 0.0
244 1 -54.754717624 -39.0889444 0.0
245 1 -46.797121528 -46.95890712 0.0
246 1 -50.012512416 -32.29140504 0.0
247 1 -56.927156952 -52.885225056 0.0
248 1 -55.4384984 -34.9442172 0.0
249 1 57.66563272 -40.10697624 0.0
250 1 -57.082931464 -43.80641664 0.0
251 1 -55.80675 -52.311557928 0.0
252 1 -58.0159771376 -39.7017244 0.0
253 1 -52.253816544 -48.463474608 0.0
254 1 -50.371461432 -38.25042792 0.0
255 1 -51.57605852 -52.62070252 0.0
256 1 -53.759726312 -53.597485512 0.0
257 1 -51.863504864 -42.49693496 0.0
258 1 -44.91292224 -35.72250616 0.0
259 1 -55.933881424 -42.11187568 0.0
260 1 -56.797200904 -50.357828536 0.0
261 1 -51.288308704 -49.082032248 0.0
262 1 -52.673389928 -50.906657648 0.0
263 1 -53.05151604 -46.57128 0.0
264 1 -55.559431992 -48.576681336 0.0
265 1 -50.657892312 -55.596000368 0.0
266 1 -57.161355632 -32.35746856 0.0
267 1 -50.55335788 -40.89063432 0.0
268 1 -54.39578028 -34.35909984 0.0
269 1 -49.194351904 -35.38110016 0.0
270 1 -47.15464656 -37.97356808 0.0
271 1 -46.43425072 -28.24262168 0.0
272 1 55.54751488 -40.98342672 0.0
273 1 -46.07498656 -51.266668816 0.0
274 1 -45.87831336 -48.810845 0.0
275 1 -49.38434872 -51.539945352 0.0
276 1 -53.138542472 -32.62405704 0.0
277 1 -55.148320808 -32.4265668 0.0
278 1 -50.465280968 -39.6532856 0.0
279 1 -49.83056928 -42.64692016 0.0
280 1 -49.49879268 -52.670647008 0.0
281 1 -52.018567384 -44.7341072 0.0
282 1 58.1650776 -35.23344936 0.0
283 1 -52.54786924 -38.13802656 0.0
284 1 -48.293576976 -51.03937996 0.0
285 1 -53.884745104 -55.95399228 0.0
286 1 -51.425583096 -37.66484368 0.0
287 1 -55.774803736 -40.69291064 0.0
288 1 -49.226823408 -40.28637488 0.0
289 1 -46.799339208 -31.92478752 0.0
290 1 -50.940214648 -58.0543931912 0.0
291 1 -53.959854424 -31.8622256 0.0
292 1 -47.6827462 -55.302356192 0.0
293 1 -46.23967848 -52.383539152 0.0
294 1 -53.077626304 -45.1595516 0.0
295 1 -47.172819864 -40.3711136 0.0
296 1 -51.688308144 -29.74095632 0.0
297 1 -57.8983385512 -52.247093472 0.0
298 1 -43.91134792 -38.7107716 0.0
299 1 -54.759514816 -50.492850232 0.0
300 1 -56.753209136 -51.748290552 0.0
301 1 -52.057680256 -33.24967624 0.0
302 1 -47.811289936 -56.48565188 0.0
303 1 57.02542352 -48.481029296 0.0
304 1 -49.955786496 58.07240192 0.0
305 1 -53.301378544 -33.87015976 0.0
306 1 55.9316404 -47.731231688 0.0
307 1 -47.742191696 -46.40950608 0.0
308 1 -57.5232903456 -33.6188616 0.0
309 1 -45.32657792 -42.90347072 0.0
310 1 -45.7548236 -46.3629348 0.0
311 1 -53.049730224 -57.7404922592 0.0
312 1 -47.031588664 -34.50114808 0.0
313 1 -48.84218432 -46.881148256 0.0
314 1 -54.21422232 -46.933193704 0.0
315 1 -51.426260072 -50.18382236 0.0
316 1 -57.016190968 -29.88137048 0.0
317 1 -44.64458296 -29.5791824 0.0
318 1 -50.203653088 56.85979784 0.0
319 1 -52.75032008 -30.08364624 0.0
320 1 -46.976987048 -50.536585216 0.0
321 1 -57.2590771176 -44.89949944 0.0
322 1 -55.86505164 -29.42884704 0.0
323 1 -44.07639 -41.13586304 0.0
324 1 -52.25566072 -35.66391272 0.0
325 1 -54.79922296 -40.18751304 0.0
326 1 57.08553432 -47.151962 0.0
327 1 -58.0252610464 -31.65761544 0.0
328 1 56.7644376 -50.83547012 0.0
329 1 -51.205624256 -35.14882736 0.0
330 1 -47.940662384 -48.739809208 0.0
331 1 -52.374236568 -49.596884168 0.0
332 1 -52.504764544 -52.032888928 0.0
333 1 -54.91664328 -3.35733408 0.0
334 1 -45.97635816 -8.45064472 0.0
335 1 -58.0706884704 -2.71467376 0.0
336 1 -54.113329552 -6.48274552 0.0
337 1 -45.21639424 -13.7986384 0.0
338 1 -54.862380152 -16.25220952 0.0
339 1 -45.70591792 -18.78561712 0.0
340 1 -49.64492612 -15.83271784 0.0
341 1 -49.143742112 -11.39549032 0.0
342 1 56.30012544 -18.75375256 0.0
343 1 -46.52307464 -5.32219856 0.0
344 1 -55.263488432 -24.49299168 0.0
345 1 -52.165050984 -19.35602776 0.0
346 1 -51.620283728 -13.3393452 0.0
347 1 -54.985426376 -4.51601352 0.0
348 1 -50.501604232 -12.93059176 0.0
349 1 -55.10047728 -18.51225888 0.0
350 1 -49.967913704 -7.00635144 0.0
351 1 -56.678193192 -26.28674464 0.0
352 1 -55.890414896 -15.51955808 0.0
353 1 -44.42549952 -27.17463368 0.0
354 1 -47.426172296 -13.5179268 0.0
355 1 -45.8120164 -21.1502476 0.0
356 1 -44.87697248 -23.08476488 0.0
357 1 -46.40238616 -14.31990992 0.0
358 1 -48.116571096 -24.36541672 0.0
359 1 -47.927554728 -22.07607064 0.0
360 1 -46.57933368 -18.00394328 0.0
361 1 -44.63979744 -6.69844408 0.0
362 1 -56.104922912 -2.7680148 0.0
363 1 -53.37448028 -8.570166 0.0
364 1 -51.021591832 -17.76560104 0.0
365 1 -46.693450824 -20.45097808 0.0
366 1 -54.385660656 -9.14979752 0.0
367 1 -54.783827592 -28.73284568 0.0
368 1 -56.301771192 -22.82903136 0.0
369 1 -52.5893632 -0.02999704 0.0
370 1 -50.627685176 -16.40021048 0.0
371 1 -47.325594672 -27.59739352 0.0
372 1 -55.272627608 -19.77925448 0.0
373 1 -55.095598384 -5.69663632 0.0
374 1 -45.36883056 -26.50979656 0.0
375 1 -52.565225504 -10.43967024 0.0
376 1 -44.28975416 -25.9748688 0.0
377 1 -52.228605024 -24.09532664 0.0
378 1 -47.818584936 -20.96921488 0.0
379 1 -57.8114265048 -11.86972368 0.0
380 1 -46.15774104 -24.67939352 0.0
381 1 -57.9561441312 -13.04824552 0.0
382 1 -50.163711504 -24.21776592 0.0
383 1 -50.163851568 -25.34493096 0.0
384 1 -53.69026624 -12.1336276 0.0
385 1 -49.846139728 -17.21725048 0.0
386 1 -55.535761176 -9.61574376 0.0
387 1 -50.396731312 -11.58457672 0.0
388 1 -44.36678936 -14.5503152 0.0
389 1 58.31716376 -23.93133504 0.0
390 1 -49.520934464 -28.83824384 0.0
391 1 -46.808793528 -6.63214712 0.0
392 1 -51.852031288 -14.42355728 0.0
393 1 -47.177780464 -25.156078 0.0
394 1 -45.11624848 -11.3282596 0.0
395 1 -52.571843528 1.23232976 0.0
396 1 -57.4966665136 -9.2348864 0.0
397 1 -54.593550648 -26.48750304 0.0
398 1 -52.586351824 -12.76204808 0.0
399 1 -48.147501896 -9.58282872 0.0
400 1 -53.735180096 -29.4607116 0.0
401 1 -47.946463368 -7.25799976 0.0
402 1 -51.63797848 -2.22258224 0.0
403 1 -47.618538528 -18.47642584 0.0
404 1 -56.925114352 -14.8532036 0.0
405 1 -47.997201552 -8.4400232 0.0
406 1 -55.283622632 -22.17598296 0.0
407 1 -47.50661572 -14.81048408 0.0
408 1 -52.342827216 -7.97185928 0.0
409 1 -55.726026448 0.78645936 0.0
410 1 58.32801872 -19.12725656 0.0
411 1 -56.005617536 -1.57466952 0.0
412 1 -57.4660111728 -19.78450688 0.0
413 1 -47.864292488 -19.6363892 0.0
414 1 57.80931504 -13.61877288 0.0
415 1 -44.31776696 -1.95237544 0.0
416 1 -56.908726864 -27.45674592 0.0
417 1 -50.755878752 -30.40462624 0.0
418 1 -57.02256388 -4.57040504 0.0
419 1 -51.073497216 -22.47105112 0.0
420 1 57.80417936 -12.3828248 0.0
421 1 -46.985892784 -7.81113584 0.0
422 1 -55.915626416 -14.40581584 0.0
423 1 -46.18470336 -10.70754264 0.0
424 1 -45.66226464 -19.9602872 0.0
425 1 57.92358392 -11.21480776 0.0
426 1 -53.920099592 -15.54932168 0.0
427 1 -53.203987376 -23.54149024 0.0
428 1 -53.694153016 -3.15073968 0.0
429 1 -56.351820728 -25.030604 0.0
430 1 -47.08146312 -12.4662796 0.0
431 1 -56.357703416 -23.92129712 0.0
432 1 -56.003808376 -5.06996664 0.0
433 1 -46.32710176 -25.91907664 0.0
434 1 56.70304288 -14.04631824 0.0
435 1 -51.162741328 -23.612456 0.0
436 1 -49.9214358 -19.62319984 0.0
437 1 -50.721656448 -15.25390336 0.0
438 1 -52.856313512 -16.11868184 0.0
439 1 -46.04172136 -23.4764772 0.0
440 1 -54.641779352 -11.45875256 0.0
441 1 -48.469439 -14.22513328 0.0
442 1 -49.816574552 -5.7963152 0.0
443 1 -57.982854336 -14.34593848 0.0
444 1 -55.812842784 -11.90392264 0.0
445 1 -46.44323816 -4.1032916 0.0
446 1 -49.733061392 -2.10481176 0.0
447 1 57.26504968 -19.40434984 0.0
448 1 -57.2914202296 -18.6991276 0.0
449 1 -57.3575689552 -8.01726336 0.0
450 1 -50.563465832 -4.12640216 0.0
451 1 -47.321649536 -26.44910216 0.0
452 1 -48.228972456 -11.9824752 0.0
453 1 -43.03513088 -12.8438688 0.0
454 1 -46.5251756 -15.43516952 0.0
455 1 -48.865575008 -6.46675488 0.0
456 1 -46.714577144 -19.279226 0.0
457 1 -50.241213584 -26.69421416 0.0
458 1 56.90053312 -11.74308248 0.0
459 1 -47.68852384 -16.26481528 0.0
460 1 57.80546328 -0.73930448 0.0
461 1 -46.1720976 -13.21807312 0.0
462 1 -46.08829264 -11.84136072 0.0
463 1 -55.917879112 -16.63983664 0.0
464 1 -46.45934552 -2.99596896 0.0
465 1 58.34996208 -8.54577152 0.0
466 1 -58.1607986448 -3.94828744 0.0
467 1 -44.7848804 -10.18743832 0.0
468 1 -47.496332688 -4.68257296 0.0
469 1 -58.1525407048 -16.79787552 0.0
470 1 -53.935658368 -5.37752384 0.0
471 1 -51.450852976 -28.56278464 0.0
472 1 -53.37687304 -27.038188 0.0
473 1 -55.762197976 -26.95566696 0.0
474 1 -55.483972512 -20.954158 0.0
475 1 58.31529624 -6.13900512 0.0
476 1 -54.974699808 -13.76794104 0.0
477 1 57.42588984 -18.30998312 0.0
478 1 -47.624292824 -3.35254856 0.0
479 1 -51.801654936 -4.52184952 0.0
480 1 -49.702399048 -0.88928968 0.0
481 1 -49.116721432 -24.8794516 0.0
482 1 -48.428283528 -28.26094672 0.0
483 1 -50.574227416 -29.2698744 0.0
484 1 -50.96934796 -7.42619328 0.0
485 1 -50.971005384 -6.30976648 0.0
486 1 -53.27316732 -19.83819808 0.0
487 1 -52.590320304 -28.83637632 0.0
488 1 -52.163591984 -20.4744388 0.0
489 1 -45.8931368 -9.63208456 0.0
490 1 -50.117712152 -8.20553272 0.0
491 1 -43.92663824 -23.69567736 0.0
492 1 -47.000657864 -8.93409896 0.0
493 1 -49.544873736 -4.6343676 0.0
494 1 57.52988736 -17.21024728 0.0
495 1 -45.21125856 -12.59303752 0.0
496 1 -57.062201992 -3.36993984 0.0
497 1 -57.066182144 -17.44333712 0.0
498 1 -48.527717296 -15.51652336 0.0
499 1 -49.349356064 -9.976642 0.0
500 1 -51.779221352 -15.54990528 0.0
501 1 -44.46716856 -15.7682884 0.0
502 1 -56.753512608 -11.32113968 0.0
503 1 -45.46057248 -15.00563992 0.0
504 1 -54.142579584 -17.96425848 0.0
505 1 -52.393903888 -9.21060864 0.0
506 1 -45.46512456 -27.65552008 0.0
507 1 -53.9018796 -2.03127816 0.0
508 1 -53.421366704 -9.70573488 0.0
509 1 57.03966336 -21.89760576 0.0
510 1 -50.427218576 -27.9468532 0.0
511 1 -52.38644548 -26.57796104 0.0
512 1 -57.050996872 -1.07977672 0.0
513 1 -51.054156712 -20.11272352 0.0
514 1 -55.801602648 -28.26759976 0.0
515 1 -50.06815284 -22.03113344 0.0
516 1 -56.92323516 -16.02192096 0.0
517 1 -51.577540864 -12.16934392 0.0
518 1 -53.024822176 -6.0793612 0.0
519 1 -44.7247696 -7.89062216 0.0
520 1 -49.372921832 -27.63346 0.0
521 1 -56.916418712 -12.55311928 0.0
522 1 -43.70533712 -7.31285816 0.0
523 1 -56.937521688 -13.64970368 0.0
524 1 -48.600819032 -2.72961392 0.0
525 1 -47.108110296 -23.9089248 0.0
526 1 -48.52919964 -5.10790064 0.0
527 1 -43.03839904 -13.95761104 0.0
528 1 -46.823465232 -21.59938616 0.0
529 1 -56.00791692 -3.88350784 0.0
530 1 -51.95895848 -6.83197176 0.0
531 1 58.25822016 -20.28511896 0.0
532 1 -54.86826284 -1.06868832 0.0
533 1 -48.559173336 -3.9270444 0.0
534 1 -53.791719264 -4.25549448 0.0
535 1 -57.2279782408 -6.88904784 0.0
536 1 -51.249639368 -8.64673432 0.0
537 1 -43.81295296 -21.16320352 0.0
538 1 -57.6782174704 -10.59549144 0.0
539 1 -49.05951696 -21.52071688 0.0
540 1 57.04958456 -10.4441056 0.0
541 1 -54.17716372 -19.20125704 0.0
542 1 -53.19263052 -24.67600864 0.0
543 1 -48.408429456 -29.3702536 0.0
544 1 -44.67773144 -20.46405072 0.0
545 1 -45.46442424 -2.36159576 0.0
546 1 -45.59106544 -6.06979016 0.0
547 1 -44.72605352 -19.31634296 0.0
548 1 -56.81614456 -28.76342632 0.0
549 1 -55.23610592 -6.7971892 0.0
550 1 -49.294100816 -26.08762032 0.0
551 1 -52.88653232 -13.88524464 0.0
552 1 -44.03472096 -11.04101168 0.0
553 1 -52.580469136 -11.58842848 0.0
554 1 -51.605098456 0.57332864 0.0
555 1 -48.334370616 -27.0224308 0.0
556 1 -54.3687596 -20.43848904 0.0
557 1 -44.61983832 -9.05910608 0.0
558 1 -55.386896488 -8.36030344 0.0
559 1 -45.6585296 -7.26453608 0.0
560 1 -51.539945352 -11.04859848 0.0
561 1 -57.062727232 -2.22479992 0.0
562 1 -49.106368368 -23.72077216 0.0
563 1 -46.971793008 -22.742892 0.0
564 1 -43.65257968 -9.66184816 0.0
565 1 -58.0654384048 -1.50522112 0.0
566 1 -52.918840416 -4.97028776 0.0
567 1 -50.152506384 -20.78526416 0.0
568 1 -53.92049644 -14.41270232 0.0
569 1 -43.94729768 -24.82996232 0.0
570 1 -51.296385728 -24.7726528 0.0
571 1 -56.346708392 -21.7052512 0.0
572 1 -52.700492312 -2.57741104 0.0
573 1 -52.269795512 -21.66334872 0.0
574 1 -57.4545410984 -23.37166264 0.0
575 1 -53.83499904 -13.23172936 0.0
576 1 -48.732339128 -1.5663824 0.0
577 1 -55.765594528 -10.73088664 0.0
578 1 -54.256918496 -21.628216 0.0
579 1 58.12620984 -9.64994272 0.0
580 1 -45.37851832 -1.09319952 0.0
581 1 -45.73101272 -16.2981972 0.0
582 1 -54.360145664 -22.80907224 0.0
583 1 -57.1770428 -5.75593008 0.0
584 1 56.61655336 -15.23581176 0.0
585 1 -52.715129 -1.3142672 0.0
586 1 55.75586008 -12.14074752 0.0
587 1 -50.847970832 -18.9693344 0.0
588 1 -54.188567264 -25.23708168 0.0
589 1 -45.47364512 -17.40972176 0.0
590 1 -46.3851116 -27.00877456 0.0
591 1 -56.169480744 -18.17190336 0.0
592 1 -55.915731464 -13.07532456 0.0
593 1 -56.43756324 -8.77395912 0.0
594 1 -54.88256104 0.04680472 0.0
595 1 -45.26144816 -25.383682 0.0
596 1 -48.552298528 -13.07719208 0.0
597 1 -48.772607528 -16.6051708 0.0
598 1 -54.779287184 -27.61922016 0.0
599 1 -44.1195764 -13.46388544 0.0
600 1 -53.579522304 -0.61114592 0.0
601 1 -51.427368912 -27.12794568 0.0
602 1 58.27082592 -22.83358344 0.0
603 1 -54.86592844 -14.9681728 0.0
604 1 -50.720956128 -1.53101624 0.0
605 1 -57.7603673408 -25.58689152 0.0
606 1 -51.939968136 -17.07053344 0.0
607 1 -55.010112656 -2.229352 0.0
608 1 -46.72552548 -16.8701252 0.0
609 1 -52.125669656 -22.83848568 0.0
610 1 -50.837851208 -5.20501168 0.0
611 1 -47.143943336 -11.28612368 0.0
612 1 -47.098585944 -10.06103056 0.0
613 1 -44.37425944 -3.0557296 0.0
614 1 -44.50556944 -28.32689352 0.0
615 1 -48.11688624 -10.76251776 0.0
616 1 -48.209421856 -25.748432 0.0
617 1 -52.122915064 -18.19641456 0.0
618 1 -52.45210048 -27.71364664 0.0
619 1 -55.368886592 -23.38940408 0.0
620 1 -52.65863652 -3.69850664 0.0
621 1 -45.494538 -3.52541088 0.0
622 1 57.17657592 -20.77184136 0.0
623 1 -43.6661192 -8.51915936 0.0
624 1 -53.288621048 -25.9141744 0.0
625 1 -50.241983936 -9.30538528 0.0
626 1 -52.1960168 -25.49911808 0.0
627 1 -49.529361648 -13.59869704 0.0
628 1 -56.473407952 -20.46545136 0.0
629 1 -50.63762972 -2.7388348 0.0
630 1 58.18013448 -21.53740784 0.0
631 1 -47.454476896 -28.78291856 0.0
632 1 -48.885522456 -19.1765124 0.0
633 1 -56.714271344 -10.06931768 0.0
634 1 -51.537097384 -9.90929456 0.0
635 1 -53.06196248 -17.57114552 0.0
636 1 -54.427831592 -7.64877832 0.0
637 1 -52.830051512 -14.98673128 0.0
638 1 -49.47807488 -12.42379352 0.0
639 1 -51.59251604 -3.3901324 0.0
640 1 -49.576049648 -3.2366456 0.0
641 1 -43.38855904 -5.03098216 0.0
642 1 -44.14922328 -12.156388 0.0
643 1 -56.361776944 -19.32661432 0.0
644 1 -49.013797736 -20.34908152 0.0
645 1 -45.55009672 -4.79334024 0.0
646 1 -49.121763736 -8.8170288 0.0
647 1 -54.817477968 -12.63108824 0.0
648 1 -53.814479664 -16.7102188 0.0
649 1 -44.32418656 -4.15383136 0.0
650 1 -53.324944312 -20.97154928 0.0
651 1 -45.86547416 -22.30297432 0.0
652 1 -56.275660928 -7.57197656 0.0
653 1 -53.640987056 -28.12706888 0.0
654 1 -48.770086376 -18.0063944 0.0
655 1 -47.837493576 -17.37820736 0.0
656 1 -55.562139896 -25.76699048 0.0
657 1 -46.45782816 -1.81196128 0.0
658 1 -57.4675658832 -20.95427472 0.0
659 1 -50.509564536 -10.45542744 0.0
660 1 -58.212827752 -18.00907896 0.0
661 1 -45.07714728 -24.17761424 0.0
662 1 -50.091170024 -23.13226992 0.0
663 1 -53.170815552 -18.68523792 0.0
664 1 -57.9851969064 -15.50064944 0.0
665 1 -49.846758344 -18.47023968 0.0
666 1 -47.585203296 -5.78149176 0.0
667 1 -55.079607744 -17.37704016 0.0
668 1 -51.889031528 -5.66430488 0.0
669 1 -53.161326216 -22.31266208 0.0
670 1 -51.626551592 -0.80606832 0.0
671 1 -54.22210092 -24.0454872 0.0
672 1 -49.045650624 -7.71425824 0.0
673 1 -53.331317224 -7.26722064 0.0
674 1 -51.132720944 -25.90623744 0.0
675 1 57.71990752 -2.05532248 0.0
676 1 -44.62987624 -5.40728744 0.0
677 1 -49.643420432 -14.76671408 0.0
678 1 -47.581538288 -2.15511808 0.0
679 1 -48.107280184 -23.23404976 0.0
680 1 -49.072682976 -22.63585976 0.0
681 1 -57.5517385112 -22.07163528 0.0
682 1 -51.125472632 -21.36956448 0.0
683 1 -56.213122352 -6.31560248 0.0
684 1 56.96391208 16.361226 0.0
685 1 -57.8195303744 -0.22737056 0.0
686 1 -54.060653816 21.23556992 0.0
687 1 58.04742384 1.55786184 0.0
688 1 -45.99024784 3.09039544 0.0
689 1 -49.69628292 10.42239568 0.0
690 1 -50.166361048 18.74208056 0.0
691 1 -54.328222744 16.44771552 0.0
692 1 -45.76427792 9.14174384 0.0
693 1 -48.743532576 8.68245064 0.0
694 1 -45.47901424 25.36418976 0.0
695 1 -52.843030776 10.18335312 0.0
696 1 -55.243097448 8.0735224 0.0
697 1 -49.67492316 11.8599192 0.0
698 1 -48.0924334 18.42997128 0.0
699 1 -57.4433056312 3.44627472 0.0
700 1 -53.83289808 23.8243028 0.0
701 1 -52.663807216 24.1832168 0.0
702 1 -51.440558272 1.67131368 0.0
703 1 -53.280789136 18.29597672 0.0
704 1 -46.67597784 22.55333872 0.0
705 1 -55.89037988 22.54341752 0.0
706 1 -56.503836856 15.62694048 0.0
707 1 -54.389290648 4.957682 0.0
708 1 -47.087462528 4.9150792 0.0
709 1 -51.540669016 26.06917856 0.0
710 1 -50.39981272 2.09664136 0.0
711 1 -46.56579416 23.66941536 0.0
712 1 -49.687400528 9.30503512 0.0
713 1 -55.09195672 6.9080732 0.0
714 1 -53.242084784 17.08220544 0.0
715 1 -56.870372672 24.46112712 0.0
716 1 -48.038111912 17.27642752 0.0
717 1 -57.6222315552 13.76023752 0.0
718 1 58.32521744 7.72091128 0.0
719 1 -54.519725248 15.31973344 0.0
720 1 -53.54284888 1.87604056 0.0
721 1 -54.043367584 9.73106312 0.0
722 1 -53.997496624 7.37401944 0.0
723 1 -46.3366728 27.105302 0.0
724 1 -58.0948378384 21.59938616 0.0
725 1 -47.421200024 26.69701544 0.0
726 1 -50.16929072 17.40260184 0.0
727 1 -55.96397184 23.80819544 0.0
728 1 -51.865967656 21.16028552 0.0
729 1 56.982704 3.37869384 0.0
730 1 -50.610632384 25.40165688 0.0
731 1 -52.475129336 15.1479216 0.0
732 1 -45.9637524 19.33455128 0.0
733 1 -56.445628592 17.91173448 0.0
734 1 -58.3253980058 8.9646796 0.0
735 1 -57.7429025272 26.35024032 0.0
736 1 -52.83628436 12.57506264 0.0
737 1 -54.232092152 18.96104728 0.0
738 1 -44.5386012 7.1882012 0.0
739 1 -51.261801592 2.79264272 0.0
740 1 -54.125036568 20.13396656 0.0
741 1 -52.341053072 2.3834224 0.0
742 1 -47.396863904 25.56844976 0.0
743 1 -51.09902388 16.7323956 0.0
744 1 -45.44808344 21.84321424 0.0
745 1 -47.275650184 27.92455968 0.0
746 1 -53.039738992 7.88361896 0.0
747 1 -53.079365432 19.43656456 0.0
748 1 -57.904039156 25.08441192 0.0
749 1 56.42898432 20.67438016 0.0
750 1 -54.95043372 21.93040408 0.0
751 1 -51.146972456 18.07199104 0.0
752 1 -49.180287144 3.74974672 0.0
753 1 -48.86383588 6.25911 0.0
754 1 -43.56597344 20.53431616 0.0
755 1 -43.65608128 19.39372832 0.0
756 1 -57.3309824736 8.16152928 0.0
757 1 57.89708848 2.6664684 0.0
758 1 -55.501503856 16.14155896 0.0
759 1 -57.85028376 23.95934784 0.0
760 1 -52.203346816 4.66985048 0.0
761 1 -46.10510032 16.87397696 0.0
762 1 -49.461080448 14.2987836 0.0
763 1 -52.13806532 7.10427952 0.0
764 1 -55.500161576 17.2232032 0.0
765 1 -57.5873229376 17.45524256 0.0
766 1 58.00003552 26.94061008 0.0
767 1 -56.599839056 16.77721608 0.0
768 1 -55.59805464 2.1634052 0.0
769 1 -57.6842822416 1.11946152 0.0
770 1 -49.716522168 23.31120168 0.0
771 1 -54.803319832 25.39056848 0.0
772 1 -54.875289384 12.86044304 0.0
773 1 -56.351809056 6.36567536 0.0
774 1 -54.78264872 1.37426128 0.0
775 1 -51.83827 12.07106568 0.0
776 1 57.25279408 19.94324608 0.0
777 1 -50.824510112 21.64794168 0.0
778 1 -49.178758112 16.801844 0.0
779 1 -49.51606724 0.23892584 0.0
780 1 -55.724042208 13.57500288 0.0
781 1 -47.921578664 19.5558524 0.0
782 1 -45.81365048 5.48584 0.0
783 1 57.57984352 22.2112324 0.0
784 1 -50.874116112 8.7312396 0.0
785 1 57.96221824 13.31460056 0.0
786 1 -45.95768296 14.41818816 0.0
787 1 -52.108511816 17.33315344 0.0
788 1 -53.786046672 10.85834488 0.0
789 1 -51.079496624 5.12494176 0.0
790 1 -54.67217324 26.66946952 0.0
791 1 57.9643192 0.3600812 0.0
792 1 -53.573522896 24.89427504 0.0
793 1 -57.029765504 11.76525928 0.0
794 1 -53.155198416 6.59724784 0.0
795 1 -48.28776432 14.76297904 0.0
796 1 -51.685331784 23.57755672 0.0
797 1 -46.54513472 24.88890592 0.0
798 1 -57.451293948 5.87755232 0.0
799 1 -46.97320532 3.7344564 0.0
800 1 -48.04434476 4.3659116 0.0
801 1 -47.637657264 23.32310712 0.0
802 1 -45.5774092 7.84918656 0.0
803 1 -47.193946184 16.38001792 0.0
804 1 -49.969069232 4.55243016 0.0
805 1 -52.580982704 26.6553464 0.0
806 1 -46.804043024 6.08718144 0.0
807 1 -51.83541036 22.28640008 0.0
808 1 -49.61055208 24.60656024 0.0
809 1 -49.830195776 19.81053544 0.0
810 1 -45.15651688 16.28699208 0.0
811 1 -51.70824392 10.52791056 0.0
812 1 -46.10650096 0.782024 0.0
813 1 -44.52961376 21.14943056 0.0
814 1 -54.958580776 24.28721432 0.0
815 1 -47.659997472 9.45758816 0.0
816 1 58.07602024 15.66067256 0.0
817 1 -50.974868816 20.47023688 0.0
818 1 -52.90660816 21.779952 0.0
819 1 -50.500273624 14.76204528 0.0
820 1 -54.857326176 23.12153168 0.0
821 1 -50.706249408 9.97325712 0.0
822 1 -53.784902816 11.98352568 0.0
823 1 -55.403564104 5.75943168 0.0
824 1 -49.92878916 6.991528 0.0
825 1 -48.839184616 7.4572408 0.0
826 1 -48.31315092 15.97219824 0.0
827 1 -56.02980192 9.80949896 0.0
828 1 -45.00536448 3.6597556 0.0
829 1 -47.714937576 20.74371184 0.0
830 1 -49.777181552 22.121358 0.0
831 1 -56.633781232 2.65806456 0.0
832 1 -49.173295616 17.95013536 0.0