ITEM: TIMESTEP
0
ITEM: NUMBER OF ATOMS
9963
ITEM: BOX BOUNDS pp pp pp
-5.8359999999999999e+01 5.8359999999999999e+01
-5.8359999999999999e+01 5.8359999999999999e+01
-5.0000000000000000e-01 5.0000000000000000e-01
ITEM: ATOMS id type xs ys zs c_002[1] c_002[2]
1 1 0.34962 0.118689 0.5 0.0636487 0.141968
2 1 0.228557 0.04707 0.5 -0.567544 0.299481
3 1 0.0551317 0.0852729 0.5 -0.288643 -0.251842
4 1 0.373076 0.226007 0.5 -0.267449 -0.683149
5 1 0.145507 0.134958 0.5 -0.321105 -0.296717
6 1 0.299561 0.127421 0.5 0.368884 -0.0617579
7 1 0.0793481 0.244455 0.5 0.378229 0.824329
8 1 0.336635 0.151333 0.5 -0.8697 0.185042
9 1 0.269732 0.00960567 0.5 -0.338202 -0.16903
10 1 0.181918 0.139382 0.5 0.463409 0.192146
11 1 0.156949 0.00209932 0.5 0.313427 -0.459378
12 1 0.156235 0.241843 0.5 0.913702 0.247453
13 1 0.18512 0.0062196 0.5 -0.6863 -0.565438
14 1 0.138384 0.0581307 0.5 -0.637777 0.513574
15 1 0.0342441 0.0499512 0.5 0.109244 -0.0362317
16 1 0.972284 0.160823 0.5 0.272381 0.0770684
17 1 0.12114 0.960315 0.5 0.0257315 -0.000478526
18 1 0.049319 0.855989 0.5 0.318953 0.438696
19 1 0.222525 0.0620903 0.5 0.243074 0.251023
20 1 0.277124 0.108086 0.5 -0.294297 0.015628
21 1 0.293873 0.0972295 0.5 -0.721175 -0.128953
22 1 0.187839 0.252326 0.5 -0.354004 0.572661
23 1 0.000903224 0.959479 0.5 0.69551 0.225672
24 1 0.0557676 0.0756579 0.5 -0.677656 -0.307007
25 1 0.435028 0.0957655 0.5 -0.239149 -0.707996
26 1 0.15653 0.223833 0.5 -0.34906 0.350119
27 1 0.321032 0.192703 0.5 0.575207 -0.113667
28 1 0.0931607 0.183023 0.5 -0.677908 -0.438123
29 1 0.232369 0.123042 0.5 0.833668 -0.0905789
30 1 0.0468304 0.975513 0.5 0.862212 0.137742
31 1 0.148462 0.0918442 0.5 -0.431257 -0.15591
32 1 0.162701 0.186377 0.5 0.504025 0.442321
33 1 0.183743 0.123695 0.5 0.633806 0.158192
34 1 0.164078 0.11534 0.5 -0.808276 0.00153553
35 1 0.408357 0.237031 0.5 0.377756 -0.706939
36 1 0.0293526 0.229442 0.5 -0.600739 -0.499233
37 1 0.285553 0.022331 0.5 -0.558583 0.00282257
38 1 0.295303 0.118877 0.5 0.0392133 0.30491
39 1 0.975907 0.293489 0.5 0.214018 0.69262
40 1 0.179249 0.0342703 0.5 -0.0467296 0.509181
41 1 0.187904 0.151276 0.5 0.52314 0.26525
42 1 0.055014 0.191776 0.5 -0.189211 -0.0643803
43 1 0.123821 0.217289 0.5 -0.153483 -0.422805
44 1 0.183131 0.0441665 0.5 -0.376653 0.685321
45 1 0.0768441 0.151388 0.5 -0.469516 -0.00386862
46 1 0.105473 0.998647 0.5 0.0960094 0.235674
47 1 0.164437 0.126148 0.5 -0.547825 -0.191796
48 1 0.195349 0.0809607 0.5 -0.206901 0.289771
49 1 0.183937 0.0163129 0.5 -0.158528 0.0030287
50 1 0.973203 0.0429695 0.5 0.708431 0.572102
51 1 0.99158 0.0808154 0.5 0.71998 0.618989
52 1 0.110911 0.182699 0.5 -0.654786 -0.682606
53 1 0.333423 0.900238 0.5 -0.355981 -0.15283
54 1 0.176447 0.110589 0.5 -0.115375 0.227057
55 1 0.247862 0.0451823 0.5 -0.187245 0.544273
56 1 0.365266 0.22044 0.5 -0.530174 -0.789183
57 1 0.0673842 0.175307 0.5 -0.34008 0.270127
58 1 0.0417502 0.0118801 0.5 0.854504 0.378255
59 1 0.130727 0.0174218 0.5 -0.701401 -0.313351
60 1 0.0292415 0.15993 0.5 -0.269638 0.724542
61 1 0.0535783 0.17202 0.5 0.175541 0.302647
62 1 0.211973 0.0998496 0.5 -0.528899 0.534999
63 1 0.284053 0.328058 0.5 -0.453933 0.467012
64 1 0.18995 0.227381 0.5 0.519819 -0.511563
65 1 0.28558 0.214163 0.5 -0.369694 -0.0480197
66 1 0.0158954 0.0191065 0.5 0.661563 0.640427
67 1 0.0458622 0.0705547 0.5 -0.124492 0.595632
68 1 0.129108 0.195518 0.5 -0.296028 -0.778984
69 1 0.154796 0.953871 0.5 -0.453813 0.816122
70 1 0.0769073 0.141598 0.5 -0.106398 0.231949
71 1 0.210979 0.28366 0.5 0.484997 -0.0645173
72 1 0.0509349 0.0312918 0.5 0.558366 0.652858
73 1 0.111138 0.100513 0.5 0.0747825 -0.72369
74 1 0.189107 0.114234 0.5 0.743374 0.3908
75 1 0.195099 0.0687626 0.5 -0.492941 0.690219
76 1 0.264606 0.0761867 0.5 0.367188 -0.613439
77 1 0.186402 0.026035 0.5 0.197417 0.569183
78 1 0.082642 0.957647 0.5 0.252954 0.738585
79 1 0.987519 0.070807 0.5 0.612229 0.651537
80 1 0.19841 0.0420539 0.5 -0.135952 0.273556
81 1 0.186117 0.327985 0.5 0.572286 0.553174
82 1 0.136392 0.1091 0.5 -0.871543 -0.294143
83 1 0.095516 0.290713 0.5 0.0950538 0.0442089
84 1 0.202034 0.182236 0.5 0.698203 0.458292
85 1 0.202555 0.0628167 0.5 -0.387735 0.0824577
86 1 0.273127 0.11693 0.5 0.83556 -0.24774
87 1 0.145591 0.0519475 0.5 -0.445185 0.736187
88 1 0.123126 0.0116519 0.5 -0.718408 0.0617378
89 1 0.175315 0.187987 0.5 0.630594 0.449044
90 1 0.963107 0.220794 0.5 -0.0294616 0.286995
91 1 0.0157421 0.0464449 0.5 0.743251 0.439179
92 1 0.0489919 0.209095 0.5 -0.613407 0.141717
93 1 0.296432 0.0470989 0.5 -0.900628 0.157786
94 1 0.103765 0.962953 0.5 0.10516 0.460254
95 1 0.00609193 0.178672 0.5 -0.39403 0.643725
96 1 0.97257 0.328962 0.5 0.573444 0.0492315
97 1 0.138311 0.0971358 0.5 -0.61736 -0.0976698
98 1 0.11155 0.828 0.5 -0.141326 0.462626
99 1 0.233124 0.185153 0.5 0.392902 0.422265
100 1 0.0642015 0.15637 0.5 -0.658718 -0.613503
101 1 0.11291 0.00670511 0.5 -0.572783 0.0935128
102 1 0.132058 0.00720291 0.5 -0.723815 -0.344603
103 1 0.229655 0.0262522 0.5 -0.736882 -0.224292
104 1 0.160753 0.177034 0.5 0.254013 -0.022966
105 1 0.120434 0.06677 0.5 -0.882814 -0.0146195
106 1 0.213322 0.124627 0.5 0.32487 -0.499133
107 1 0.885505 0.977507 0.5 0.423667 0.575706
108 1 0.21566 0.213285 0.5 0.888765 0.318639
109 1 0.0125818 0.0371057 0.5 0.692519 0.497618
110 1 0.112489 0.0206969 0.5 -0.831557 -0.0258022
111 1 0.12775 0.104797 0.5 -0.448533 -0.459924
112 1 0.059875 0.0950165 0.5 0.338734 -0.229632
113 1 0.0751139 0.0754334 0.5 -0.76967 -0.581003
114 1 0.0571777 0.241576 0.5 0.393067 0.592591
115 1 0.126986 0.148836 0.5 -0.0647276 0.193294
116 1 0.210345 0.202567 0.5 0.499444 0.583622
117 1 0.011807 0.129793 0.5 0.516374 -0.234415
118 1 0.266859 0.145145 0.5 -0.0765358 0.134247
119 1 0.353177 0.13966 0.5 -0.529689 0.302841
120 1 0.195683 0.190353 0.5 0.527681 0.747357
121 1 0.0378239 0.0773254 0.5 0.31269 0.293085
122 1 0.0326728 0.328961 0.5 0.172387 0.228123
123 1 0.102686 0.0766718 0.5 -0.575946 0.310355
124 1 0.024391 0.0857916 0.5 0.406602 0.395698
125 1 0.0939605 0.987637 0.5 0.177712 0.817361
126 1 0.925835 0.988378 0.5 0.0777301 0.848096
127 1 0.0205856 0.960743 0.5 0.485131 0.170301
128 1 0.259507 0.982698 0.5 -0.883624 -0.187367
129 1 0.121325 0.0252398 0.5 -0.843786 0.0619335
130 1 0.0304229 0.250045 0.5 0.209162 0.250407
131 1 0.087208 0.166356 0.5 -0.429428 0.192977
132 1 0.0514235 0.965296 0.5 0.517035 0.327343
133 1 0.210299 0.790965 0.5 -0.898099 0.0159394
134 1 0.268416 0.966388 0.5 -0.358026 0.0393048
135 1 0.163894 0.157793 0.5 0.703881 -0.0307019
136 1 0.00108843 0.0537823 0.5 0.846999 0.255096
137 1 0.130037 0.0628558 0.5 -0.788336 -0.0893273
138 1 0.0982306 0.247353 0.5 0.347612 0.41733
139 1 0.19876 0.11451 0.5 0.820534 0.379895
140 1 0.0841195 0.208741 0.5 -0.197037 0.00990412
141 1 0.102295 0.271419 0.5 -0.637591 0.442996
142 1 0.186937 0.0868544 0.5 -0.434724 0.674843
143 1 0.076119 0.231859 0.5 0.36062 0.413595
144 1 0.342668 0.0815536 0.5 0.037054 0.446874
145 1 0.109791 0.865821 0.5 -0.117022 0.612647
146 1 0.0921736 0.12757 0.5 -0.392105 0.863821
147 1 0.158104 0.149669 0.5 0.0984059 -0.700771
148 1 0.151107 0.143224 0.5 -0.146019 -0.741755
149 1 0.919028 0.278796 0.5 0.170986 -0.256252
150 1 0.0724748 0.161446 0.5 -0.0831965 -0.00972749
151 1 0.185775 0.964013 0.5 -0.73189 0.301172
152 1 0.0226835 0.994195 0.5 0.50319 0.295992
153 1 0.0417257 0.308041 0.5 -0.109521 -0.0898718
154 1 0.117494 0.0465473 0.5 -0.487007 -0.0475906
155 1 0.225487 0.166263 0.5 0.481596 -0.00219727
156 1 0.371351 0.238212 0.5 -0.0438611 -0.577412
157 1 0.105112 0.935859 0.5 -0.265487 0.786016
158 1 0.154355 0.277204 0.5 0.582755 0.678211
159 1 0.0172807 0.145413 0.5 -0.222882 0.772367
160 1 0.0439232 0.865786 0.5 0.697839 0.476589
161 1 0.0767358 0.101788 0.5 0.517754 -0.422046
162 1 0.129543 0.916003 0.5 -0.182272 0.924231
163 1 0.177478 0.999729 0.5 0.09801 -0.26131
164 1 0.066095 0.206275 0.5 -0.473573 0.080239
165 1 0.130687 0.994904 0.5 -0.549418 -0.109371
166 1 0.113368 0.134538 0.5 0.529753 0.643482
167 1 0.983125 0.107094 0.5 0.503976 0.590116
168 1 0.0606614 0.0325708 0.5 0.204395 0.903607
169 1 0.363577 0.140986 0.5 -0.441018 0.708456
170 1 0.12012 0.885455 0.5 0.770855 0.3878
171 1 0.352383 0.128272 0.5 -0.215158 0.498339
172 1 0.963734 0.152659 0.5 -0.0900496 0.225898
173 1 0.270754 0.975746 0.5 -0.536292 0.260483
174 1 0.140581 0.0335575 0.5 0.0502053 0.180135
175 1 0.144736 0.104404 0.5 -0.533231 -0.527287
176 1 0.147972 0.153463 0.5 0.0359404 -0.860499
177 1 0.153022 0.321575 0.5 0.659304 0.309669
178 1 0.0714649 0.223446 0.5 0.940203 -0.16738
179 1 0.230812 0.173835 0.5 0.537379 0.300179
180 1 0.154382 0.0996585 0.5 -0.34864 -0.480084
181 1 0.246022 0.0821669 0.5 -0.530371 -0.727166
182 1 0.131156 0.0303861 0.5 -0.728263 0.252074
183 1 0.16552 0.00833824 0.5 0.152883 0.0315177
184 1 0.0641788 0.0808004 0.5 -0.477678 -0.0875516
185 1 0.192487 0.980603 0.5 -0.544794 -0.0258734
186 1 0.038335 0.163126 0.5 0.284636 0.495616
187 1 0.996111 0.999988 0.5 0.530588 0.297544
188 1 0.261597 0.959743 0.5 -0.652537 -0.569653
189 1 0.219665 0.0426169 0.5 -0.491254 -0.270731
190 1 0.962201 0.237708 0.5 -0.339348 0.311895
191 1 0.244877 0.165378 0.5 0.151442 0.563238
192 1 0.0391556 0.224764 0.5 -0.604983 -0.530687
193 1 0.0339577 0.0859107 0.5 0.677068 0.1865
194 1 0.111854 0.0812919 0.5 -0.87518 0.182551
195 1 0.16636 0.225167 0.5 0.379389 -0.179885
196 1 0.168179 0.215587 0.5 0.174893 -0.520777
197 1 0.120089 0.0977202 0.5 -0.459525 -0.849142
198 1 0.176826 0.130999 0.5 0.339067 0.673226
199 1 0.997501 0.0262551 0.5 0.265024 0.847353
200 1 0.244936 0.123932 0.5 0.386649 -0.121802
201 1 0.10046 0.892117 0.5 0.560603 0.384793
202 1 0.200974 0.0910868 0.5 0.217525 -0.140969
203 1 0.2716 0.189494 0.5 -0.540762 -0.495683
204 1 0.00556239 0.9795 0.5 -0.0636127 0.241261
205 1 0.0394143 0.203449 0.5 -0.778231 -0.0699247
206 1 0.157606 0.075609 0.5 -0.584228 0.355236
207 1 0.0839455 0.198749 0.5 -0.829504 0.141338
208 1 0.139305 0.0682001 0.5 -0.631977 0.127876
209 1 0.209146 0.155048 0.5 0.889477 0.164302
210 1 0.257291 0.217995 0.5 0.580032 0.523711
211 1 0.160599 0.0854189 0.5 -0.411381 0.687809
212 1 0.190338 0.198552 0.5 0.304119 0.760535
213 1 0.0758859 0.170653 0.5 -0.505266 0.117485
214 1 0.137945 0.0778937 0.5 -0.720642 0.140698
215 1 0.068271 0.187586 0.5 -0.356277 -0.242844
216 1 0.0947032 0.0191602 0.5 -0.160449 -0.345514
217 1 0.0113404 0.0102789 0.5 0.766793 0.311861
218 1 0.276412 0.0562861 0.5 -0.576975 -0.0968026
219 1 0.203807 0.125657 0.5 0.35108 -0.126494
220 1 0.143166 0.939311 0.5 -0.430276 0.874356
221 1 0.111883 0.0715649 0.5 -0.810215 0.268107
222 1 0.989992 0.0528669 0.5 0.912431 -0.0134391
223 1 0.108724 0.125229 0.5 0.192976 0.393968
224 1 0.965366 0.289384 0.5 0.421239 0.497014
225 1 0.993949 0.978909 0.5 -0.536518 0.140085
226 1 0.170959 0.269185 0.5 0.659511 0.268246
227 1 0.243519 0.138688 0.5 0.19024 0.101895
228 1 0.19584 0.023956 0.5 0.0986779 -0.1654
229 1 0.167511 0.0784578 0.5 -0.498535 0.69902
230 1 0.216237 0.146381 0.5 0.31566 -0.259752
231 1 0.156246 0.0545471 0.5 -0.51931 0.782361
232 1 0.345146 0.110014 0.5 0.383117 0.540104
233 1 0.25326 0.187867 0.5 0.0560811 -0.0819591
234 1 0.0135784 0.228598 0.5 -0.100583 0.380425
235 1 0.0808428 0.12416 0.5 -0.188466 0.650628
236 1 0.0559472 0.151139 0.5 -0.317671 -0.734646
237 1 0.331497 0.190026 0.5 0.795822 -0.0704478
238 1 0.192764 0.179963 0.5 0.535352 0.651046
239 1 0.120376 0.0764671 0.5 -0.929644 -0.0646826
240 1 0.135555 0.166764 0.5 -0.491578 -0.599932
241 1 0.0517597 0.131652 0.5 0.397373 -0.83982
242 1 0.0936282 0.91106 0.5 -0.35422 -0.0821456
243 1 0.00754988 0.271993 0.5 0.197119 0.455971
244 1 0.0666559 0.104446 0.5 0.554093 -0.729365
245 1 0.283816 0.0928789 0.5 -0.693932 0.197739
246 1 0.998052 0.185236 0.5 -0.158942 0.635724
247 1 0.0449999 0.0415752 0.5 0.00141623 0.359263
248 1 0.136542 0.129487 0.5 -0.728994 -0.235855
249 1 0.0465914 0.0894472 0.5 -0.628594 0.394536
250 1 0.253898 0.167952 0.5 -0.354182 0.597828
251 1 0.331706 0.0605666 0.5 0.290256 -0.361806
252 1 0.202562 0.0522438 0.5 -0.271123 0.380995
253 1 0.193896 0.163888 0.5 0.46152 0.215661
254 1 0.0231674 0.16797 0.5 -0.228032 0.815152
255 1 0.0133099 0.973744 0.5 0.0803696 0.569584
256 1 0.213205 0.961187 0.5 -0.443376 0.560546
257 1 0.112736 0.235912 0.5 -0.0751911 0.160242
258 1 0.20549 0.0720042 0.5 0.134306 0.716891
259 1 0.112777 0.116624 0.5 0.555563 -0.555416
260 1 0.954457 0.0223123 0.5 0.674593 0.0544796
261 1 0.184639 0.103709 0.5 0.434432 0.694476
262 1 0.0962583 0.997617 0.5 0.0617202 0.891987
263 1 0.30839 0.925192 0.5 -0.863472 0.173339
264 1 0.0737792 0.0457986 0.5 0.598515 0.140972
265 1 0.0713336 0.0549133 0.5 0.411261 0.116897
266 1 0.0157433 0.407578 0.5 -0.166018 0.492109
267 1 0.121597 0.0877954 0.5 -0.762154 -0.35726
268 1 0.855524 0.0939481 0.5 0.303866 0.530046
269 1 0.132449 0.213068 0.5 -0.195059 -0.372001
270 1 0.0697405 0.0945535 0.5 0.451723 -0.548633
271 1 0.221866 0.265876 0.5 0.701155 0.505315
272 1 0.0320487 0.218381 0.5 -0.614735 -0.330876
273 1 0.429635 0.274266 0.5 0.681087 -0.264723
274 1 0.272808 0.134121 0.5 0.755452 0.240179
275 1 0.289392 0.169878 0.5 -0.0954599 -0.748929
276 1 0.0871625 0.144049 0.5 -0.239743 0.703492
277 1 0.976412 0.179834 0.5 -0.178307 -0.500255
278 1 0.0136582 0.256669 0.5 -0.0280114 0.806584
279 1 0.988994 0.236612 0.5 -0.255269 0.550968
280 1 0.276003 0.0344758 0.5 -0.588511 0.0935281
281 1 0.0768421 0.0283872 0.5 0.320893 0.626022
282 1 0.944512 0.0221806 0.5 0.428196 0.321366
283 1 0.892372 0.150066 0.5 0.797151 0.00559518
284 1 0.365298 0.121162 0.5 0.326804 -0.232174
285 1 0.0747304 0.0161916 0.5 0.53636 0.214292
286 1 0.0406875 0.106649 0.5 0.317485 0.156418
287 1 0.0907828 0.978546 0.5 0.603594 0.591725
288 1 0.164446 0.98202 0.5 0.513965 -0.128815
289 1 0.175248 0.221984 0.5 -0.0374371 -0.837638
290 1 0.925997 0.0444011 0.5 0.0861326 0.878534
291 1 0.0997807 0.200069 0.5 -0.0813081 0.0445076
292 1 0.0101181 0.961541 0.5 0.656089 0.294707
293 1 0.0698005 0.035517 0.5 0.236234 0.893235
294 1 0.0470456 0.0203144 0.5 0.710504 0.483352
295 1 0.125615 0.114453 0.5 -0.27198 -0.267816
296 1 0.0946777 0.15993 0.5 -0.640636 0.0501742
297 1 0.133739 0.935928 0.5 -0.37082 0.88057
298 1 0.225446 0.144084 0.5 0.365678 -0.214074
299 1 0.0637005 0.0141469 0.5 0.674784 0.570233
300 1 0.31527 0.0567695 0.5 -0.750441 -0.409039
301 1 0.132412 0.17593 0.5 -0.430211 -0.681651
302 1 0.122347 0.933029 0.5 -0.530443 0.625849
303 1 0.14194 0.928513 0.5 -0.207187 0.902232
304 1 0.160606 0.991652 0.5 0.525948 -0.748626
305 1 0.0560118 0.215265 0.5 -0.0864663 0.272081
306 1 0.0669117 0.145415 0.5 -0.600646 -0.344896
307 1 0.995029 0.967977 0.5 0.047687 0.288669
308 1 0.960421 0.278991 0.5 0.435157 -0.183386
309 1 0.21759 0.0537269 0.5 0.280948 -0.157686
310 1 0.191103 0.132424 0.5 -0.0317157 0.207367
311 1 0.159043 0.972846 0.5 0.443107 0.456546
312 1 0.0604813 0.224377 0.5 0.546927 0.232426
313 1 0.184638 0.0565845 0.5 -0.463449 0.490852
314 1 0.0982778 0.00700288 0.5 0.302828 0.205574
315 1 0.0822813 0.484482 0.5 0.415374 -0.556139
316 1 0.199521 0.436453 0.5 0.277128 0.323838
317 1 0.0468441 0.294159 0.5 0.0659511 0.632362
318 1 0.218579 0.360455 0.5 0.439354 0.488076
319 1 0.225494 0.275483 0.5 0.4649 -0.00977453
320 1 0.219176 0.312283 0.5 0.424915 0.740498
321 1 0.255794 0.330615 0.5 -0.460227 -0.661614
322 1 0.146703 0.241238 0.5 0.191411 0.053461
323 1 0.0542753 0.53515 0.5 -0.0630082 -0.393786
324 1 0.978917 0.208627 0.5 -0.0166226 0.068667
325 1 0.0497419 0.276849 0.5 0.0474742 0.82176
326 1 0.103196 0.176758 0.5 -0.709784 -0.45934
327 1 0.233035 0.282164 0.5 0.573776 -0.147377
328 1 0.293558 0.329264 0.5 -0.422938 0.370827
329 1 0.125528 0.386007 0.5 -0.237011 0.751973
330 1 0.289061 0.288414 0.5 -0.443414 0.120389
331 1 0.209039 0.357434 0.5 0.305625 0.086655
332 1 0.110643 0.4569 0.5 -0.0321984 0.166707
333 1 0.907447 0.227885 0.5 -0.253668 -0.669419
334 1 0.11577 0.501637 0.5 -0.0305789 -0.0123115
335 1 0.997036 0.23117 0.5 -0.718108 0.556414
336 1 0.315695 0.263192 0.5 -0.216852 -0.677479
337 1 0.295371 0.147811 0.5 0.082528 0.132157
338 1 0.352368 0.261986 0.5 0.0448405 -0.717053
339 1 0.270913 0.381994 0.5 -0.188441 0.251789
340 1 0.0894343 0.117672 0.5 -0.470549 0.476954
341 1 0.0629737 0.440843 0.5 0.678861 0.241365
342 1 0.267937 0.247872 0.5 0.0323201 0.285876
343 1 0.205417 0.274446 0.5 0.232616 0.278806
344 1 0.103352 0.446566 0.5 0.254754 -0.644275
345 1 0.092151 0.503541 0.5 0.285169 -0.409384
346 1 0.243338 0.341742 0.5 0.27558 -0.640579
347 1 0.119314 0.227228 0.5 0.448796 0.0572661
348 1 0.199419 0.33973 0.5 0.284926 0.688922
349 1 0.986276 0.11894 0.5 0.577091 0.268694
350 1 0.0835867 0.334701 0.5 -0.605611 -0.537236
351 1 0.946529 0.522502 0.5 0.377891 0.247117
352 1 0.184464 0.218904 0.5 0.274221 -0.299623
353 1 0.107414 0.309236 0.5 0.755736 0.389175
354 1 0.233396 0.2318 0.5 0.604147 0.0999079
355 1 0.178324 0.48952 0.5 0.344586 -0.320849
356 1 0.0686819 0.399096 0.5 -0.183819 0.275639
357 1 0.0729034 0.487775 0.5 -0.10533 -0.0423855
358 1 0.0475859 0.0996113 0.5 -0.50371 0.310498
359 1 0.160554 0.339438 0.5 0.445305 0.205531
360 1 0.138762 0.265532 0.5 0.720261 0.472173
361 1 0.171807 0.342171 0.5 -0.091234 0.798668
362 1 0.205146 0.212557 0.5 0.554733 0.317583
363 1 0.172993 0.316744 0.5 0.215505 0.347218
364 1 0.359583 0.269373 0.5 -0.163277 -0.822314
365 1 0.950275 0.167395 0.5 0.646892 0.396655
366 1 0.0879571 0.418679 0.5 0.305437 0.173542
367 1 0.175089 0.326832 0.5 -0.0731985 0.656111
368 1 0.0438729 0.477013 0.5 0.0614083 -0.256869
369 1 0.279782 0.293955 0.5 -0.806981 0.0582753
370 1 0.215614 0.27324 0.5 0.659289 0.281005
371 1 0.186412 0.238524 0.5 0.155748 -0.294495
372 1 0.0972433 0.146401 0.5 -0.340363 0.0881563
373 1 0.192908 0.352347 0.5 -0.124195 -0.024401
374 1 0.0590996 0.384184 0.5 -0.124343 0.858161
375 1 0.23343 0.324183 0.5 0.457437 0.386679
376 1 0.275031 0.343102 0.5 -0.098558 -0.172603
377 1 0.152613 0.469244 0.5 0.252333 -0.649408
378 1 0.220534 0.284203 0.5 0.706058 -0.104132
379 1 0.0304897 0.20811 0.5 -0.843817 0.0452498
380 1 0.21159 0.264632 0.5 0.764867 0.58568
381 1 0.184743 0.452194 0.5 0.102712 0.627335
382 1 0.0323757 0.170841 0.5 0.310617 0.825702
383 1 0.205486 0.395497 0.5 -0.217869 0.837093
384 1 0.130599 0.367094 0.5 -0.209555 0.810892
385 1 0.0163282 0.266646 0.5 -0.213074 0.722466
386 1 0.150766 0.343055 0.5 0.157074 0.272428
387 1 0.0222564 0.525782 0.5 0.19744 0.573728
388 1 0.198302 0.23629 0.5 0.64817 -0.251703
389 1 0.131997 0.321603 0.5 0.572835 0.488827
390 1 0.179443 0.40232 0.5 0.364722 -0.0704584
391 1 0.11087 0.25557 0.5 0 0
392 1 0.0892404 0.218048 0.5 0.01958 0.579157
393 1 0.11082 0.399123 0.5 -0.0212154 0.93211
394 1 0.0756653 0.204508 0.5 -0.661453 0.00299881
395 1 0.258051 0.289436 0.5 0.327517 -0.1319
396 1 0.279638 0.282858 0.5 -0.419244 -0.185484
397 1 0.219543 0.451468 0.5 0.86743 0.00985197
398 1 0.132904 0.140319 0.5 -0.152819 -0.0975766
399 1 0.169247 0.138958 0.5 0.344868 0.116324
400 1 0.117339 0.355706 0.5 0.2144 0.571924
401 1 0.128354 0.248742 0.5 0.717378 -0.00808281
402 1 0.0661305 0.270457 0.5 0.118232 0.959126
403 1 0.129669 0.4744 0.5 0.431835 -0.44676
404 1 0.28695 0.224714 0.5 -0.345181 0.250416
405 1 0.0915731 0.48412 0.5 0.728751 0.234868
406 1 0.266606 0.171677 0.5 0.356593 -0.232742
407 1 0.00609382 0.316512 0.5 0.382621 0.775624
408 1 0.220077 0.204662 0.5 0.56115 0.161382
409 1 0.256855 0.177096 0.5 -0.0771803 -0.321095
410 1 0.183648 0.355942 0.5 -0.721104 0.240597
411 1 0.0286803 0.186053 0.5 0.0660084 0.76691
412 1 0.230748 0.434639 0.5 0.620758 0.11622
413 1 0.0344675 0.339138 0.5 0.29262 -0.044964
414 1 0.0347447 0.47956 0.5 -0.50336 -0.254967
415 1 0.194468 0.281598 0.5 -0.384942 -0.638848
416 1 0.126692 0.282983 0.5 0.872649 -0.0799143
417 1 0.178671 0.335641 0.5 0.17366 0.903466
418 1 0.265712 0.277516 0.5 -0.177671 0.011432
419 1 0.253838 0.421644 0.5 -0.866792 0.00967801
420 1 0.287262 0.259383 0.5 0.507655 -0.505108
421 1 0.261689 0.209661 0.5 0.419891 0.464592
422 1 0.123162 0.413569 0.5 -0.0403412 0.970961
423 1 0.266245 0.257472 0.5 -0.653173 -0.0243591
424 1 0.102949 0.503416 0.5 0.405804 -0.429768
425 1 0.121116 0.346596 0.5 0.0726001 0.490452
426 1 0.173386 0.278334 0.5 0.368412 -0.0932311
427 1 0.16158 0.595513 0.5 -0.0904683 -0.137846
428 1 0.0668355 0.548276 0.5 -0.0345343 -0.379485
429 1 0.0823625 0.344341 0.5 -0.65806 -0.577651
430 1 0.213667 0.229948 0.5 0.606683 0.685092
431 1 0.223462 0.24752 0.5 0.478649 0.407398
432 1 0.143372 0.490055 0.5 0.546083 0.102542
433 1 0.350041 0.338022 0.5 0.00809031 -0.886196
434 1 0.293362 0.318693 0.5 0.0451788 0.724365
435 1 0.195244 0.270845 0.5 -0.172282 0.281681
436 1 0.268449 0.199084 0.5 0.171226 -0.13955
437 1 0.154307 0.489316 0.5 0.321788 0.271363
438 1 0.113259 0.162074 0.5 0.247165 -0.25424
439 1 0.978512 0.196661 0.5 -0.0742914 -0.2397
440 1 0.104165 0.337027 0.5 -0.143124 -0.552948
441 1 0.1663 0.331709 0.5 0.225036 0.488517
442 1 0.0186354 0.328367 0.5 0.513923 0.488859
443 1 0.265723 0.345918 0.5 0.360049 0.330806
444 1 0.156171 0.365081 0.5 -0.579224 0.141786
445 1 0.203439 0.246289 0.5 0.921239 0.249176
446 1 0.158157 0.60569 0.5 0.328479 -0.927918
447 1 0.184461 0.498105 0.5 0.082924 -0.448743
448 1 0.288077 0.276912 0.5 0.0775707 0.0871503
449 1 0.280028 0.196066 0.5 -0.702556 -0.562932
450 1 0.947714 0.463776 0.5 -0.106 0.587974
451 1 0.225534 0.213564 0.5 0.80688 -0.0301531
452 1 0.194431 0.445208 0.5 0.439707 0.365478
453 1 0.942158 0.129452 0.5 0.688671 0.0785508
454 1 0.137369 0.222941 0.5 -0.302729 0.072309
455 1 0.990373 0.145576 0.5 -0.574402 0.408618
456 1 0.177996 0.293001 0.5 -0.244777 -0.165931
457 1 0.182784 0.480415 0.5 0.661604 -0.300173
458 1 0.198511 0.254872 0.5 0.606943 0.561494
459 1 0.0993448 0.221333 0.5 0.368043 0.334917
460 1 0.176356 0.428062 0.5 0.619518 -0.216267
461 1 0.165634 0.567378 0.5 -0.67411 0.670862
462 1 0.114518 0.550102 0.5 -0.0669468 0.927638
463 1 0.178534 0.149195 0.5 0.642987 -0.141311
464 1 0.0253247 0.177389 0.5 -0.0129185 0.945952
465 1 0.192505 0.210023 0.5 0.00773575 0.857257
466 1 0.999579 0.56072 0.5 0.161638 0.856652
467 1 0.283039 0.268862 0.5 0.292653 -0.701112
468 1 0.242341 0.28329 0.5 0.800801 -0.178336
469 1 0.122413 0.301599 0.5 0.598828 0.524681
470 1 0.148804 0.371231 0.5 0.116867 0.296958
471 1 0.183972 0.391381 0.5 0.575353 0.166948
472 1 0.25596 0.30862 0.5 0.00649199 -0.281758
473 1 0.193134 0.317772 0.5 0.639237 0.370766
474 1 0.0699449 0.349165 0.5 -0.492852 0.0430425
475 1 0.103524 0.407867 0.5 0.109041 0.916445
476 1 0.0829732 0.464698 0.5 0.00369106 -0.123355
477 1 0.290339 0.298045 0.5 -0.447432 0.604643
478 1 0.0740693 0.44197 0.5 0.559874 -0.0472061
479 1 0.137594 0.36064 0.5 0.254937 0.50017
480 1 0.2429 0.322944 0.5 0.628671 0.204143
481 1 0.132279 0.500505 0.5 -0.0576867 0.0337234
482 1 0.140711 0.181828 0.5 -0.374239 -0.848823
483 1 0.342518 0.293403 0.5 -0.184853 -0.805175
484 1 0.143325 0.52734 0.5 -0.19952 0.545666
485 1 0.215503 0.387274 0.5 -0.0206864 0.396924
486 1 0.102465 0.261312 0.5 -0.591521 0.579452
487 1 0.111163 0.481541 0.5 -0.16757 -0.14081
488 1 0.352639 0.187451 0.5 0.131256 -0.118979
489 1 0.0385868 0.449385 0.5 0.867753 0.21262
490 1 0.322883 0.337409 0.5 0.268873 -0.47526
491 1 0.13514 0.330849 0.5 0.70312 0.576125
492 1 0.146338 0.284564 0.5 0.093681 0.943217
493 1 0.0215589 0.22343 0.5 -0.74643 -0.395093
494 1 0.147784 0.360137 0.5 0.25497 0.321707
495 1 0.160626 0.233465 0.5 0.662222 0.360421
496 1 0.122185 0.256481 0.5 0.820232 0.371491
497 1 0.132974 0.349591 0.5 0.671921 0.657493
498 1 0.105068 0.437011 0.5 0.222977 -0.40591
499 1 0.208438 0.255609 0.5 0.844083 0.39128
500 1 0.153412 0.352458 0.5 -0.0834864 0.391216
501 1 0.225519 0.4266 0.5 -0.3406 0.16986
502 1 0.296975 0.364385 0.5 -0.487079 -0.710486
503 1 0.04826 0.507021 0.5 -0.671249 0.150207
504 1 0.233129 0.345124 0.5 0.120054 -0.122568
505 1 0.0997403 0.359126 0.5 -0.0765058 0.582594
506 1 0.174671 0.362274 0.5 -0.692562 0.493617
507 1 0.241243 0.387991 0.5 0.035198 0.490354
508 1 0.248789 0.370145 0.5 0.315187 0.773147
509 1 0.24113 0.405109 0.5 0.30424 0.4285
510 1 0.292388 0.267846 0.5 0.679024 -0.534653
511 1 0.139352 0.371458 0.5 -0.00582163 0.589451
512 1 0.0628525 0.505176 0.5 0.609175 -0.0630355
513 1 0.987439 0.435256 0.5 -0.396003 0.875768
514 1 0.141138 0.408783 0.5 0.620322 0.35883
515 1 0.221366 0.378685 0.5 0.295737 -0.428736
516 1 0.151439 0.519863 0.5 0.596133 0.0971006
517 1 0.0951803 0.378436 0.5 0.213342 0.898913
518 1 0.259023 0.299452 0.5 0.147152 -0.466228
519 1 0.33434 0.229441 0.5 -0.18599 -0.641057
520 1 0.106125 0.379883 0.5 0.376505 0.824049
521 1 0.254414 0.390601 0.5 -0.26785 0.568034
522 1 0.0243345 0.339282 0.5 0.792145 0.361144
523 1 0.17118 0.299998 0.5 0.509914 0.201777
524 1 0.0664595 0.232033 0.5 0.449431 0.19348
525 1 0.0223357 0.213332 0.5 -0.931778 0.172954
526 1 0.115851 0.246939 0.5 0.440281 0.244268
527 1 0.208682 0.309574 0.5 0.26037 0.525338
528 1 0.0358117 0.512138 0.5 0.579964 0.262909
529 1 0.305946 0.204518 0.5 -0.320322 -0.640412
530 1 0.0152605 0.0639511 0.5 0.46833 0.608244
531 1 0.0537165 0.411451 0.5 0.165687 0.939345
532 1 0.195459 0.219316 0.5 0.37464 0.292959
533 1 0.140988 0.518077 0.5 0.235258 0.626195
534 1 0.28163 0.233112 0.5 -0.33423 0.505382
535 1 0.244805 0.361024 0.5 0.850494 0.334925
536 1 0.0496099 0.38291 0.5 -0.0412133 0.564794
537 1 0.104828 0.229092 0.5 0.0499663 0.0254471
538 1 0.280789 0.30447 0.5 -0.660054 0.452654
539 1 0.287034 0.368793 0.5 -0.881476 -0.267843
540 1 0.00332124 0.572286 0.5 -0.151928 0.821689
541 1 0.312233 0.338986 0.5 -0.0177492 -0.3938
542 1 0.256871 0.255302 0.5 0.409919 0.182279
543 1 0.2372 0.273095 0.5 0.809789 -0.377536
544 1 0.102741 0.298714 0.5 0.600037 0.149348
545 1 0.29698 0.25924 0.5 0.450152 -0.557019
546 1 0.391923 0.358097 0.5 -0.578141 -0.423777
547 1 0.995557 0.468048 0.5 0.420022 0.0245879
548 1 0.156963 0.573788 0.5 -0.284365 0.857382
549 1 0.283764 0.243339 0.5 -0.283211 0.29332
550 1 0.29573 0.373631 0.5 -0.206635 -0.122202
551 1 0.150035 0.294275 0.5 -0.00411961 0.755839
552 1 0.0371668 0.236221 0.5 -0.00597522 -0.194093
553 1 0.0748424 0.194525 0.5 -0.418423 -0.0911177
554 1 0.368155 0.30459 0.5 0.202535 -0.926627
555 1 0.262826 0.22931 0.5 0.0647808 0.140399
556 1 0.157518 0.213974 0.5 0.136821 -0.425694
557 1 0.164099 0.359317 0.5 -0.745892 0.421684
558 1 0.1816 0.417028 0.5 0.50582 -0.0871114
559 1 0.0500786 0.248577 0.5 0.343439 0.878023
560 1 0.130856 0.273895 0.5 0.779843 0.150021
561 1 0.215524 0.350436 0.5 0.548788 0.484139
562 1 0.0874073 0.454901 0.5 0.385863 -0.164047
563 1 0.238584 0.146845 0.5 0.344648 0.668855
564 1 0.128487 0.340267 0.5 0.276225 0.617667
565 1 0.899561 0.407002 0.5 0.188007 -0.089315
566 1 0.11254 0.467644 0.5 -0.6245 -0.0745883
567 1 0.204562 0.365894 0.5 0.193242 0.0420055
568 1 0.165609 0.261365 0.5 0.744458 0.0235371
569 1 0.0811658 0.298416 0.5 0.20557 0.123446
570 1 0.962466 0.131999 0.5 0.236317 0.490698
571 1 0.153224 0.110511 0.5 -0.811418 -0.0506479
572 1 0.219738 0.15561 0.5 0.899742 0.171009
573 1 0.242038 0.243753 0.5 0.353772 0.305726
574 1 0.279792 0.385624 0.5 -0.606381 0.683961
575 1 0.00381564 0.498443 0.5 0.624896 -0.176741
576 1 0.146875 0.426506 0.5 0.239025 0.351869
577 1 0.258648 0.199123 0.5 0.242514 0.335693
578 1 0.318356 0.319463 0.5 -0.123888 -0.939971
579 1 0.317049 0.348541 0.5 -0.0411814 -0.245841
580 1 0.0685313 0.280022 0.5 0.334549 0.824088
581 1 0.365447 0.287986 0.5 0.22573 -0.7627
582 1 0.159825 0.269081 0.5 0.865627 0.394486
583 1 0.177076 0.212914 0.5 0.0540487 -0.375536
584 1 0.130308 0.292228 0.5 0.589928 0.395504
585 1 0.141719 0.321889 0.5 0.842467 0.293804
586 1 0.0718699 0.359641 0.5 -0.7082 0.653902
587 1 0.999896 0.150058 0.5 -0.529909 0.330219
588 1 0.0682345 0.323261 0.5 -0.362154 -0.899887
589 1 0.978268 0.557237 0.5 -0.0433196 0.618633
590 1 0.279798 0.351782 0.5 -0.197515 -0.505034
591 1 0.131926 0.239607 0.5 0.310041 0.341495
592 1 0.0718188 0.468392 0.5 -0.149338 -0.419753
593 1 0.179638 0.258439 0.5 -0.5706 0.283972
594 1 0.0395554 0.502799 0.5 0.183064 0.102135
595 1 0.189348 0.399656 0.5 0.160999 -0.233049
596 1 0.423297 0.214306 0.5 -0.664696 -0.648416
597 1 0.143224 0.350349 0.5 0.510722 0.621056
598 1 0.127324 0.357258 0.5 0.38712 0.712271
599 1 0.181357 0.284273 0.5 -0.00392843 -0.569797
600 1 0.00329547 0.169595 0.5 0.0227093 0.690897
601 1 0.960032 0.122686 0.5 0.422212 0.76677
602 1 0.162467 0.410032 0.5 0.912189 0.363967
603 1 0.169588 0.643399 0.5 -0.0292017 -0.854077
604 1 0.160836 0.252367 0.5 0.65749 0.330596
605 1 0.293244 0.240155 0.5 -0.409372 -0.809567
606 1 0.104667 0.212594 0.5 0.474856 -0.0768194
607 1 0.0896701 0.315253 0.5 -0.136491 -0.0129445
608 1 0.0326142 0.130328 0.5 0.241436 0.646128
609 1 0.461688 0.267938 0.5 0.243315 -0.858765
610 1 0.364753 0.314099 0.5 -0.178614 -0.833573
611 1 0.355556 0.317011 0.5 -0.401314 -0.884374
612 1 0.113828 0.442561 0.5 0.246297 -0.0411791
613 1 0.318479 0.278235 0.5 0.115036 -0.379425
614 1 0.237276 0.194336 0.5 0.800454 0.555211
615 1 0.0565739 0.52363 0.5 -0.769175 -0.23272
616 1 0.294453 0.339441 0.5 -0.119416 0.380187
617 1 0.186938 0.275384 0.5 -0.0266215 -0.609757
618 1 0.161529 0.381019 0.5 0.226895 0.412567
619 1 0.132021 0.377646 0.5 -0.0725201 0.844258
620 1 0.146788 0.312847 0.5 0.726674 0.353399
621 1 0.266143 0.316831 0.5 -0.85308 -0.284749
622 1 0.162545 0.519322 0.5 0.344355 -0.4891
623 1 0.246264 0.331944 0.5 0.176999 -0.452348
624 1 0.265616 0.307538 0.5 0.242382 -0.088141
625 1 0.0962275 0.493857 0.5 0.793519 0.152962
626 1 0.22778 0.291368 0.5 0.285827 -0.281123
627 1 0.167417 0.444862 0.5 0.17608 -0.689114
628 1 0.262968 0.395214 0.5 -0.845567 0.0925637
629 1 0.130685 0.406337 0.5 0.0784166 0.914917
630 1 0.137943 0.247367 0.5 0.432783 -0.116284
631 1 0.277185 0.373858 0.5 -0.534654 0.104414
632 1 0.115199 0.265361 0.5 0.619447 0.167918
633 1 0.140002 0.147036 0.5 0.212172 -0.729393