ITEM: TIMESTEP
0
ITEM: NUMBER OF ATOMS
8197
ITEM: BOX BOUNDS pp pp pp
-5.8500000000000000e+01 5.8500000000000000e+01
-5.8500000000000000e+01 5.8500000000000000e+01
-5.0000000000000000e-01 5.0000000000000000e-01
ITEM: ATOMS id type xs ys zs c_002[1] c_002[2]
1 1 0.00468337 0.00711561 0.5 0.271584 0.239557
2 1 0.00793634 0.017384 0.5 0.751117 3.89142e-06
3 1 0.0142439 0.00711561 0.5 0 0
4 1 0.0197933 0.017384 0.5 0.995263 2.21611e-07
5 1 0.0257218 0.00711561 0.5 0 0
6 1 0.0316502 0.017384 0.5 1 3.91255e-11
7 1 0.0375787 0.00711561 0.5 0 0
8 1 0.0435072 0.017384 0.5 1 -9.25186e-18
9 1 0.0494357 0.00711561 0.5 0 0
10 1 0.0553642 0.017384 0.5 1 -3.91255e-11
11 1 0.0612926 0.00711561 0.5 0 0
12 1 0.0672211 0.017384 0.5 1 9.25186e-18
13 1 0.0731496 0.00711561 0.5 0 0
14 1 0.0790781 0.017384 0.5 1 0
15 1 0.0850066 0.00711561 0.5 0 0
16 1 0.090935 0.017384 0.5 1 3.91255e-11
17 1 0.0968635 0.00711561 0.5 0 0
18 1 0.102792 0.017384 0.5 1 -1.9573e-10
19 1 0.10872 0.00711561 0.5 0 0
20 1 0.114649 0.017384 0.5 1 -3.91204e-10
21 1 0.120577 0.00711561 0.5 0 0
22 1 0.126506 0.017384 0.5 1 -3.91204e-10
23 1 0.132434 0.00711561 0.5 0 0
24 1 0.138363 0.017384 0.5 1 -3.91204e-10
25 1 0.144291 0.00711561 0.5 0 0
26 1 0.15022 0.017384 0.5 1 -3.91204e-10
27 1 0.156148 0.00711561 0.5 0 0
28 1 0.162077 0.017384 0.5 1 -3.91203e-10
29 1 0.168005 0.00711561 0.5 0 0
30 1 0.173934 0.017384 0.5 1 -3.91204e-10
31 1 0.179862 0.00711561 0.5 0 0
32 1 0.185791 0.017384 0.5 1 -3.91203e-10
33 1 0.191719 0.00711561 0.5 0 0
34 1 0.197648 0.017384 0.5 1 -3.91204e-10
35 1 0.203576 0.00711561 0.5 0 0
36 1 0.209505 0.017384 0.5 1 -3.91203e-10
37 1 0.215433 0.00711561 0.5 0 0
38 1 0.221362 0.017384 0.5 1 -3.91204e-10
39 1 0.22729 0.00711561 0.5 0 0
40 1 0.233218 0.017384 0.5 1 3.91203e-10
41 1 0.239147 0.00711561 0.5 0 0
42 1 0.245075 0.017384 0.5 1 3.91203e-10
43 1 0.251004 0.00711561 0.5 0 0
44 1 0.256932 0.017384 0.5 1 3.91203e-10
45 1 0.262861 0.00711561 0.5 0 0
46 1 0.268789 0.017384 0.5 1 3.91203e-10
47 1 0.274718 0.00711561 0.5 0 0
48 1 0.280646 0.017384 0.5 1 3.91203e-10
49 1 0.286575 0.00711561 0.5 0 0
50 1 0.292503 0.017384 0.5 1 3.91203e-10
51 1 0.298432 0.00711561 0.5 0 0
52 1 0.30436 0.017384 0.5 1 3.91204e-10
53 1 0.310289 0.00711561 0.5 0 0
54 1 0.316217 0.017384 0.5 1 3.91204e-10
55 1 0.322146 0.00711561 0.5 0 0
56 1 0.328074 0.017384 0.5 1 3.91203e-10
57 1 0.334003 0.00711561 0.5 0 0
58 1 0.339931 0.017384 0.5 1 3.91203e-10
59 1 0.34586 0.00711561 0.5 0 0
60 1 0.351788 0.017384 0.5 1 3.91203e-10
61 1 0.357717 0.00711561 0.5 0 0
62 1 0.363645 0.017384 0.5 1 6.4763e-17
63 1 0.369573 0.00711561 0.5 0 0
64 1 0.375502 0.017384 0.5 1 -3.91203e-10
65 1 0.38143 0.00711561 0.5 0 0
66 1 0.387359 0.017384 0.5 1 -3.91203e-10
67 1 0.393287 0.00711561 0.5 0 0
68 1 0.399216 0.017384 0.5 1 -3.91203e-10
69 1 0.405144 0.00711561 0.5 0 0
70 1 0.411073 0.017384 0.5 1 -3.91203e-10
71 1 0.417001 0.00711561 0.5 0 0
72 1 0.42293 0.017384 0.5 1 -3.91203e-10
73 1 0.428858 0.00711561 0.5 0 0
74 1 0.434787 0.017384 0.5 1 -3.91203e-10
75 1 0.440715 0.00711561 0.5 0 0
76 1 0.446644 0.017384 0.5 1 -3.91203e-10
77 1 0.452572 0.00711561 0.5 0 0
78 1 0.458501 0.017384 0.5 1 -3.91203e-10
79 1 0.464429 0.00711561 0.5 0 0
80 1 0.470358 0.017384 0.5 1 -3.91203e-10
81 1 0.476286 0.00711561 0.5 0 0
82 1 0.482215 0.017384 0.5 1 -3.91204e-10
83 1 0.488143 0.00711561 0.5 0 0
84 1 0.494072 0.017384 0.5 1 -3.91204e-10
85 1 0.5 0.00711561 0.5 0 0
86 1 0.505928 0.017384 0.5 1 3.91204e-10
87 1 0.511857 0.00711561 0.5 0 0
88 1 0.517785 0.017384 0.5 1 3.91204e-10
89 1 0.523714 0.00711561 0.5 0 0
90 1 0.529642 0.017384 0.5 1 3.91203e-10
91 1 0.535571 0.00711561 0.5 0 0
92 1 0.541499 0.017384 0.5 1 3.91203e-10
93 1 0.547428 0.00711561 0.5 0 0
94 1 0.553356 0.017384 0.5 1 3.91203e-10
95 1 0.559285 0.00711561 0.5 0 0
96 1 0.565213 0.017384 0.5 1 3.91203e-10
97 1 0.571142 0.00711561 0.5 0 0
98 1 0.57707 0.017384 0.5 1 3.91203e-10
99 1 0.582999 0.00711561 0.5 0 0
100 1 0.588927 0.017384 0.5 1 3.91203e-10
101 1 0.594856 0.00711561 0.5 0 0
102 1 0.600784 0.017384 0.5 1 3.91203e-10
103 1 0.606713 0.00711561 0.5 0 0
104 1 0.612641 0.017384 0.5 1 3.91203e-10
105 1 0.61857 0.00711561 0.5 0 0
106 1 0.624498 0.017384 0.5 1 3.91203e-10
107 1 0.630427 0.00711561 0.5 0 0
108 1 0.636355 0.017384 0.5 1 -6.4763e-17
109 1 0.642283 0.00711561 0.5 0 0
110 1 0.648212 0.017384 0.5 1 -3.91203e-10
111 1 0.65414 0.00711561 0.5 0 0
112 1 0.660069 0.017384 0.5 1 -3.91203e-10
113 1 0.665997 0.00711561 0.5 0 0
114 1 0.671926 0.017384 0.5 1 -3.91203e-10
115 1 0.677854 0.00711561 0.5 0 0
116 1 0.683783 0.017384 0.5 1 -3.91204e-10
117 1 0.689711 0.00711561 0.5 0 0
118 1 0.69564 0.017384 0.5 1 -3.91204e-10
119 1 0.701568 0.00711561 0.5 0 0
120 1 0.707497 0.017384 0.5 1 -3.91203e-10
121 1 0.713425 0.00711561 0.5 0 0
122 1 0.719354 0.017384 0.5 1 -3.91203e-10
123 1 0.725282 0.00711561 0.5 0 0
124 1 0.731211 0.017384 0.5 1 -3.91203e-10
125 1 0.737139 0.00711561 0.5 0 0
126 1 0.743068 0.017384 0.5 1 -3.91203e-10
127 1 0.748996 0.00711561 0.5 0 0
128 1 0.754925 0.017384 0.5 1 -3.91203e-10
129 1 0.760853 0.00711561 0.5 0 0
130 1 0.766782 0.017384 0.5 1 -3.91203e-10
131 1 0.77271 0.00711561 0.5 0 0
132 1 0.778638 0.017384 0.5 1 3.91204e-10
133 1 0.784567 0.00711561 0.5 0 0
134 1 0.790495 0.017384 0.5 1 3.91203e-10
135 1 0.796424 0.00711561 0.5 0 0
136 1 0.802352 0.017384 0.5 1 3.91204e-10
137 1 0.808281 0.00711561 0.5 0 0
138 1 0.814209 0.017384 0.5 1 3.91203e-10
139 1 0.820138 0.00711561 0.5 0 0
140 1 0.826066 0.017384 0.5 1 3.91204e-10
141 1 0.831995 0.00711561 0.5 0 0
142 1 0.837923 0.017384 0.5 1 3.91203e-10
143 1 0.843852 0.00711561 0.5 0 0
144 1 0.84978 0.017384 0.5 1 3.91204e-10
145 1 0.855709 0.00711561 0.5 0 0
146 1 0.861637 0.017384 0.5 1 3.91204e-10
147 1 0.867566 0.00711561 0.5 0 0
148 1 0.873494 0.017384 0.5 1 3.91204e-10
149 1 0.879423 0.00711561 0.5 0 0
150 1 0.885351 0.017384 0.5 1 3.91204e-10
151 1 0.89128 0.00711561 0.5 0 0
152 1 0.897208 0.017384 0.5 1 0
153 1 0.903136 0.00711561 0.5 0 0
154 1 0.909065 0.017384 0.5 1 -3.91203e-10
155 1 0.914993 0.00711561 0.5 0 0
156 1 0.920922 0.017384 0.5 1 -3.91204e-10
157 1 0.92685 0.00711561 0.5 0 0
158 1 0.932779 0.017384 0.5 1 -3.91203e-10
159 1 0.938707 0.00711561 0.5 0 0
160 1 0.944636 0.017384 0.5 1 -3.91204e-10
161 1 0.950564 0.00711561 0.5 0 0
162 1 0.956493 0.017384 0.5 1 -3.91203e-10
163 1 0.962421 0.00711561 0.5 0 0
164 1 0.96835 0.017384 0.5 1 -3.91204e-10
165 1 0.974278 0.00711561 0.5 0 0
166 1 0.980207 0.017384 0.5 0.995253 -2.22117e-07
167 1 0.985756 0.00711561 0.5 0 0
168 1 0.992064 0.017384 0.5 0.751112 -3.89137e-06
169 1 0.995317 0.00711561 0.5 0.271587 -0.239557
170 1 0.00468337 0.0276525 0.5 0.230143 -3.49505e-06
171 1 0.00793634 0.0379209 0.5 0.751119 2.14643e-15
172 1 0.0142439 0.0276525 0.5 0.990819 2.699e-07
173 1 0.0197933 0.0379209 0.5 0.995264 8.32667e-17
174 1 0.0257218 0.0276525 0.5 1 3.55688e-11
175 1 0.0316502 0.0379209 0.5 1 -8.32667e-17
176 1 0.0375787 0.0276525 0.5 1 9.25186e-18
177 1 0.0435072 0.0379209 0.5 1 -9.25186e-17
178 1 0.0494357 0.0276525 0.5 1 0
179 1 0.0553642 0.0379209 0.5 1 8.32667e-17
180 1 0.0612926 0.0276525 0.5 1 -3.55688e-11
181 1 0.0672211 0.0379209 0.5 1 9.25186e-17
182 1 0.0731496 0.0276525 0.5 1 -9.25186e-18
183 1 0.0790781 0.0379209 0.5 1 0
184 1 0.0850066 0.0276525 0.5 1 3.55688e-11
185 1 0.090935 0.0379209 0.5 1 -8.32667e-17
186 1 0.0968635 0.0276525 0.5 1 9.25186e-18
187 1 0.102792 0.0379209 0.5 1 -1.11022e-16
188 1 0.10872 0.0276525 0.5 1 -3.55642e-10
189 1 0.114649 0.0379209 0.5 1 -1.85037e-17
190 1 0.120577 0.0276525 0.5 1 -3.55642e-10
191 1 0.126506 0.0379209 0.5 1 4.62593e-17
192 1 0.132434 0.0276525 0.5 1 -3.55642e-10
193 1 0.138363 0.0379209 0.5 1 -1.85037e-17
194 1 0.144291 0.0276525 0.5 1 -3.55642e-10
195 1 0.15022 0.0379209 0.5 1 -1.85037e-17
196 1 0.156148 0.0276525 0.5 1 -3.55642e-10
197 1 0.162077 0.0379209 0.5 1 1.85037e-17
198 1 0.168005 0.0276525 0.5 1 -3.55642e-10
199 1 0.173934 0.0379209 0.5 1 -1.85037e-17
200 1 0.179862 0.0276525 0.5 1 -3.55642e-10
201 1 0.185791 0.0379209 0.5 1 1.85037e-17
202 1 0.191719 0.0276525 0.5 1 -3.55642e-10
203 1 0.197648 0.0379209 0.5 1 -1.85037e-17
204 1 0.203576 0.0276525 0.5 1 -3.55642e-10
205 1 0.209505 0.0379209 0.5 1 1.85037e-17
206 1 0.215433 0.0276525 0.5 1 -3.55642e-10
207 1 0.221362 0.0379209 0.5 1 1.85037e-17
208 1 0.22729 0.0276525 0.5 1 -9.25186e-17
209 1 0.233218 0.0379209 0.5 1 1.11022e-16
210 1 0.239147 0.0276525 0.5 1 3.55642e-10
211 1 0.245075 0.0379209 0.5 1 1.11022e-16
212 1 0.251004 0.0276525 0.5 1 3.55642e-10
213 1 0.256932 0.0379209 0.5 1 1.11022e-16
214 1 0.262861 0.0276525 0.5 1 3.55642e-10
215 1 0.268789 0.0379209 0.5 1 1.11022e-16
216 1 0.274718 0.0276525 0.5 1 3.55642e-10
217 1 0.280646 0.0379209 0.5 1 1.11022e-16
218 1 0.286575 0.0276525 0.5 1 3.55642e-10
219 1 0.292503 0.0379209 0.5 1 1.11022e-16
220 1 0.298432 0.0276525 0.5 1 3.55642e-10
221 1 0.30436 0.0379209 0.5 1 1.85037e-17
222 1 0.310289 0.0276525 0.5 1 3.55642e-10
223 1 0.316217 0.0379209 0.5 1 -1.85037e-17
224 1 0.322146 0.0276525 0.5 1 3.55642e-10
225 1 0.328074 0.0379209 0.5 1 1.11022e-16
226 1 0.334003 0.0276525 0.5 1 3.55642e-10
227 1 0.339931 0.0379209 0.5 1 1.11022e-16
228 1 0.34586 0.0276525 0.5 1 3.55642e-10
229 1 0.351788 0.0379209 0.5 1 1.11022e-16
230 1 0.357717 0.0276525 0.5 1 3.55642e-10
231 1 0.363645 0.0379209 0.5 1 -9.25186e-18
232 1 0.369573 0.0276525 0.5 1 -3.55642e-10
233 1 0.375502 0.0379209 0.5 1 -1.11022e-16
234 1 0.38143 0.0276525 0.5 1 -3.55642e-10
235 1 0.387359 0.0379209 0.5 1 -1.11022e-16
236 1 0.393287 0.0276525 0.5 1 -3.55642e-10
237 1 0.399216 0.0379209 0.5 1 -1.11022e-16
238 1 0.405144 0.0276525 0.5 1 -3.55642e-10
239 1 0.411073 0.0379209 0.5 1 1.85037e-17
240 1 0.417001 0.0276525 0.5 1 -3.55642e-10
241 1 0.42293 0.0379209 0.5 1 9.25186e-18
242 1 0.428858 0.0276525 0.5 1 -3.55642e-10
243 1 0.434787 0.0379209 0.5 1 -1.85037e-17
244 1 0.440715 0.0276525 0.5 1 -3.55642e-10
245 1 0.446644 0.0379209 0.5 1 1.29526e-16
246 1 0.452572 0.0276525 0.5 1 -3.55642e-10
247 1 0.458501 0.0379209 0.5 1 5.55112e-17
248 1 0.464429 0.0276525 0.5 1 -3.55642e-10
249 1 0.470358 0.0379209 0.5 1 -2.77556e-17
250 1 0.476286 0.0276525 0.5 1 -3.55642e-10
251 1 0.482215 0.0379209 0.5 1 -1.38778e-16
252 1 0.488143 0.0276525 0.5 1 -3.55642e-10
253 1 0.494072 0.0379209 0.5 1 -1.38778e-16
254 1 0.5 0.0276525 0.5 1 0
255 1 0.505928 0.0379209 0.5 1 1.38778e-16
256 1 0.511857 0.0276525 0.5 1 3.55642e-10
257 1 0.517785 0.0379209 0.5 1 1.38778e-16
258 1 0.523714 0.0276525 0.5 1 3.55642e-10
259 1 0.529642 0.0379209 0.5 1 2.77556e-17
260 1 0.535571 0.0276525 0.5 1 3.55642e-10
261 1 0.541499 0.0379209 0.5 1 -5.55112e-17
262 1 0.547428 0.0276525 0.5 1 3.55642e-10
263 1 0.553356 0.0379209 0.5 1 -1.29526e-16
264 1 0.559285 0.0276525 0.5 1 3.55642e-10
265 1 0.565213 0.0379209 0.5 1 1.85037e-17
266 1 0.571142 0.0276525 0.5 1 3.55642e-10
267 1 0.57707 0.0379209 0.5 1 -9.25186e-18
268 1 0.582999 0.0276525 0.5 1 3.55642e-10
269 1 0.588927 0.0379209 0.5 1 -1.85037e-17
270 1 0.594856 0.0276525 0.5 1 3.55642e-10
271 1 0.600784 0.0379209 0.5 1 1.11022e-16
272 1 0.606713 0.0276525 0.5 1 3.55642e-10
273 1 0.612641 0.0379209 0.5 1 1.11022e-16
274 1 0.61857 0.0276525 0.5 1 3.55642e-10
275 1 0.624498 0.0379209 0.5 1 1.11022e-16
276 1 0.630427 0.0276525 0.5 1 3.55642e-10
277 1 0.636355 0.0379209 0.5 1 9.25186e-18
278 1 0.642283 0.0276525 0.5 1 -3.55642e-10
279 1 0.648212 0.0379209 0.5 1 -1.11022e-16
280 1 0.65414 0.0276525 0.5 1 -3.55642e-10
281 1 0.660069 0.0379209 0.5 1 -1.11022e-16
282 1 0.665997 0.0276525 0.5 1 -3.55642e-10
283 1 0.671926 0.0379209 0.5 1 -1.11022e-16
284 1 0.677854 0.0276525 0.5 1 -3.55642e-10
285 1 0.683783 0.0379209 0.5 1 1.85037e-17
286 1 0.689711 0.0276525 0.5 1 -3.55642e-10
287 1 0.69564 0.0379209 0.5 1 -1.85037e-17
288 1 0.701568 0.0276525 0.5 1 -3.55642e-10
289 1 0.707497 0.0379209 0.5 1 -1.11022e-16
290 1 0.713425 0.0276525 0.5 1 -3.55642e-10
291 1 0.719354 0.0379209 0.5 1 -1.11022e-16
292 1 0.725282 0.0276525 0.5 1 -3.55642e-10
293 1 0.731211 0.0379209 0.5 1 -1.11022e-16
294 1 0.737139 0.0276525 0.5 1 -3.55642e-10
295 1 0.743068 0.0379209 0.5 1 -1.11022e-16
296 1 0.748996 0.0276525 0.5 1 -3.55642e-10
297 1 0.754925 0.0379209 0.5 1 -1.11022e-16
298 1 0.760853 0.0276525 0.5 1 -3.55642e-10
299 1 0.766782 0.0379209 0.5 1 -1.11022e-16
300 1 0.77271 0.0276525 0.5 1 9.25186e-17
301 1 0.778638 0.0379209 0.5 1 -1.85037e-17
302 1 0.784567 0.0276525 0.5 1 3.55642e-10
303 1 0.790495 0.0379209 0.5 1 -1.85037e-17
304 1 0.796424 0.0276525 0.5 1 3.55642e-10
305 1 0.802352 0.0379209 0.5 1 1.85037e-17
306 1 0.808281 0.0276525 0.5 1 3.55642e-10
307 1 0.814209 0.0379209 0.5 1 -1.85037e-17
308 1 0.820138 0.0276525 0.5 1 3.55642e-10
309 1 0.826066 0.0379209 0.5 1 1.85037e-17
310 1 0.831995 0.0276525 0.5 1 3.55642e-10
311 1 0.837923 0.0379209 0.5 1 -1.85037e-17
312 1 0.843852 0.0276525 0.5 1 3.55642e-10
313 1 0.84978 0.0379209 0.5 1 1.85037e-17
314 1 0.855709 0.0276525 0.5 1 3.55642e-10
315 1 0.861637 0.0379209 0.5 1 1.85037e-17
316 1 0.867566 0.0276525 0.5 1 3.55642e-10
317 1 0.873494 0.0379209 0.5 1 -4.62593e-17
318 1 0.879423 0.0276525 0.5 1 3.55642e-10
319 1 0.885351 0.0379209 0.5 1 1.85037e-17
320 1 0.89128 0.0276525 0.5 1 3.55642e-10
321 1 0.897208 0.0379209 0.5 1 0
322 1 0.903136 0.0276525 0.5 1 -3.55642e-10
323 1 0.909065 0.0379209 0.5 1 1.85037e-17
324 1 0.914993 0.0276525 0.5 1 -3.55642e-10
325 1 0.920922 0.0379209 0.5 1 -1.85037e-17
326 1 0.92685 0.0276525 0.5 1 -3.55642e-10
327 1 0.932779 0.0379209 0.5 1 1.85037e-17
328 1 0.938707 0.0276525 0.5 1 -3.55642e-10
329 1 0.944636 0.0379209 0.5 1 -1.85037e-17
330 1 0.950564 0.0276525 0.5 1 -3.55642e-10
331 1 0.956493 0.0379209 0.5 1 1.85037e-17
332 1 0.962421 0.0276525 0.5 1 -3.55642e-10
333 1 0.96835 0.0379209 0.5 1 -1.85037e-17
334 1 0.974278 0.0276525 0.5 1 -3.55642e-10
335 1 0.980207 0.0379209 0.5 0.995254 1.85037e-17
336 1 0.985756 0.0276525 0.5 0.990799 -2.70185e-07
337 1 0.992064 0.0379209 0.5 0.751114 -2.29446e-15
338 1 0.995317 0.0276525 0.5 0.23015 3.49508e-06
339 1 0.00468337 0.0481893 0.5 0.230142 -2.29446e-15
340 1 0.00793634 0.0584577 0.5 0.751117 3.53766e-06
341 1 0.0142439 0.0481893 0.5 0.990819 2.31296e-16
342 1 0.0197933 0.0584577 0.5 0.995263 2.01465e-07
343 1 0.0257218 0.0481893 0.5 1 -8.32667e-17
344 1 0.0316502 0.0584577 0.5 1 3.55688e-11
345 1 0.0375787 0.0481893 0.5 1 -9.25186e-17
346 1 0.0435072 0.0584577 0.5 1 9.25186e-18
347 1 0.0494357 0.0481893 0.5 1 0
348 1 0.0553642 0.0584577 0.5 1 -3.55688e-11
349 1 0.0612926 0.0481893 0.5 1 8.32667e-17
350 1 0.0672211 0.0584577 0.5 1 -9.25186e-18
351 1 0.0731496 0.0481893 0.5 1 9.25186e-17
352 1 0.0790781 0.0584577 0.5 1 0
353 1 0.0850066 0.0481893 0.5 1 -8.32667e-17
354 1 0.090935 0.0584577 0.5 1 3.55688e-11
355 1 0.0968635 0.0481893 0.5 1 -9.25186e-17
356 1 0.102792 0.0584577 0.5 1 -1.77937e-10
357 1 0.10872 0.0481893 0.5 1 -1.85037e-17
358 1 0.114649 0.0584577 0.5 1 -3.55642e-10
359 1 0.120577 0.0481893 0.5 1 -1.85037e-17
360 1 0.126506 0.0584577 0.5 1 -3.55642e-10
361 1 0.132434 0.0481893 0.5 1 4.62593e-17
362 1 0.138363 0.0584577 0.5 1 -3.55642e-10
363 1 0.144291 0.0481893 0.5 1 -1.85037e-17
364 1 0.15022 0.0584577 0.5 1 -3.55642e-10
365 1 0.156148 0.0481893 0.5 1 1.85037e-17
366 1 0.162077 0.0584577 0.5 1 -3.55642e-10
367 1 0.168005 0.0481893 0.5 1 -1.85037e-17
368 1 0.173934 0.0584577 0.5 1 -3.55642e-10
369 1 0.179862 0.0481893 0.5 1 1.85037e-17
370 1 0.185791 0.0584577 0.5 1 -3.55642e-10
371 1 0.191719 0.0481893 0.5 1 -1.85037e-17
372 1 0.197648 0.0584577 0.5 1 -3.55642e-10
373 1 0.203576 0.0481893 0.5 1 1.85037e-17
374 1 0.209505 0.0584577 0.5 1 -3.55642e-10
375 1 0.215433 0.0481893 0.5 1 -1.85037e-17
376 1 0.221362 0.0584577 0.5 1 -3.55642e-10
377 1 0.22729 0.0481893 0.5 1 3.70074e-17
378 1 0.233218 0.0584577 0.5 1 3.55642e-10
379 1 0.239147 0.0481893 0.5 1 1.11022e-16
380 1 0.245075 0.0584577 0.5 1 3.55642e-10
381 1 0.251004 0.0481893 0.5 1 1.11022e-16
382 1 0.256932 0.0584577 0.5 1 3.55642e-10
383 1 0.262861 0.0481893 0.5 1 1.11022e-16
384 1 0.268789 0.0584577 0.5 1 3.55642e-10
385 1 0.274718 0.0481893 0.5 1 1.11022e-16
386 1 0.280646 0.0584577 0.5 1 3.55642e-10
387 1 0.286575 0.0481893 0.5 1 1.11022e-16
388 1 0.292503 0.0584577 0.5 1 3.55642e-10
389 1 0.298432 0.0481893 0.5 1 1.11022e-16
390 1 0.30436 0.0584577 0.5 1 3.55642e-10
391 1 0.310289 0.0481893 0.5 1 -1.85037e-17
392 1 0.316217 0.0584577 0.5 1 3.55642e-10
393 1 0.322146 0.0481893 0.5 1 1.85037e-17
394 1 0.328074 0.0584577 0.5 1 3.55642e-10
395 1 0.334003 0.0481893 0.5 1 1.11022e-16
396 1 0.339931 0.0584577 0.5 1 3.55642e-10
397 1 0.34586 0.0481893 0.5 1 1.11022e-16
398 1 0.351788 0.0584577 0.5 1 3.55642e-10
399 1 0.357717 0.0481893 0.5 1 1.0177e-16
400 1 0.363645 0.0584577 0.5 1 2.77556e-17
401 1 0.369573 0.0481893 0.5 1 -1.11022e-16
402 1 0.375502 0.0584577 0.5 1 -3.55642e-10
403 1 0.38143 0.0481893 0.5 1 -1.11022e-16
404 1 0.387359 0.0584577 0.5 1 -3.55642e-10
405 1 0.393287 0.0481893 0.5 1 -1.11022e-16
406 1 0.399216 0.0584577 0.5 1 -3.55642e-10
407 1 0.405144 0.0481893 0.5 1 9.25186e-18
408 1 0.411073 0.0584577 0.5 1 -3.55642e-10
409 1 0.417001 0.0481893 0.5 1 1.85037e-17
410 1 0.42293 0.0584577 0.5 1 -3.55642e-10
411 1 0.428858 0.0481893 0.5 1 -1.85037e-17
412 1 0.434787 0.0584577 0.5 1 -3.55642e-10
413 1 0.440715 0.0481893 0.5 1 5.55112e-17
414 1 0.446644 0.0584577 0.5 1 -3.55642e-10
415 1 0.452572 0.0481893 0.5 1 1.29526e-16
416 1 0.458501 0.0584577 0.5 1 -3.55642e-10
417 1 0.464429 0.0481893 0.5 1 -1.11022e-16
418 1 0.470358 0.0584577 0.5 1 -3.55642e-10
419 1 0.476286 0.0481893 0.5 1 -8.32667e-17
420 1 0.482215 0.0584577 0.5 1 -3.55642e-10
421 1 0.488143 0.0481893 0.5 1 -1.38778e-16
422 1 0.494072 0.0584577 0.5 1 -3.55642e-10
423 1 0.5 0.0481893 0.5 1 0
424 1 0.505928 0.0584577 0.5 1 3.55642e-10
425 1 0.511857 0.0481893 0.5 1 1.38778e-16
426 1 0.517785 0.0584577 0.5 1 3.55642e-10
427 1 0.523714 0.0481893 0.5 1 8.32667e-17
428 1 0.529642 0.0584577 0.5 1 3.55642e-10
429 1 0.535571 0.0481893 0.5 1 1.11022e-16
430 1 0.541499 0.0584577 0.5 1 3.55642e-10
431 1 0.547428 0.0481893 0.5 1 -1.29526e-16
432 1 0.553356 0.0584577 0.5 1 3.55642e-10
433 1 0.559285 0.0481893 0.5 1 -5.55112e-17
434 1 0.565213 0.0584577 0.5 1 3.55642e-10
435 1 0.571142 0.0481893 0.5 1 1.85037e-17
436 1 0.57707 0.0584577 0.5 1 3.55642e-10
437 1 0.582999 0.0481893 0.5 1 -1.85037e-17
438 1 0.588927 0.0584577 0.5 1 3.55642e-10
439 1 0.594856 0.0481893 0.5 1 -9.25186e-18
440 1 0.600784 0.0584577 0.5 1 3.55642e-10
441 1 0.606713 0.0481893 0.5 1 1.11022e-16
442 1 0.612641 0.0584577 0.5 1 3.55642e-10
443 1 0.61857 0.0481893 0.5 1 1.11022e-16
444 1 0.624498 0.0584577 0.5 1 3.55642e-10
445 1 0.630427 0.0481893 0.5 1 1.11022e-16
446 1 0.636355 0.0584577 0.5 1 -2.77556e-17
447 1 0.642283 0.0481893 0.5 1 -1.0177e-16
448 1 0.648212 0.0584577 0.5 1 -3.55642e-10
449 1 0.65414 0.0481893 0.5 1 -1.11022e-16
450 1 0.660069 0.0584577 0.5 1 -3.55642e-10
451 1 0.665997 0.0481893 0.5 1 -1.11022e-16
452 1 0.671926 0.0584577 0.5 1 -3.55642e-10
453 1 0.677854 0.0481893 0.5 1 -1.85037e-17
454 1 0.683783 0.0584577 0.5 1 -3.55642e-10
455 1 0.689711 0.0481893 0.5 1 1.85037e-17
456 1 0.69564 0.0584577 0.5 1 -3.55642e-10
457 1 0.701568 0.0481893 0.5 1 -1.11022e-16
458 1 0.707497 0.0584577 0.5 1 -3.55642e-10
459 1 0.713425 0.0481893 0.5 1 -1.11022e-16
460 1 0.719354 0.0584577 0.5 1 -3.55642e-10
461 1 0.725282 0.0481893 0.5 1 -1.11022e-16
462 1 0.731211 0.0584577 0.5 1 -3.55642e-10
463 1 0.737139 0.0481893 0.5 1 -1.11022e-16
464 1 0.743068 0.0584577 0.5 1 -3.55642e-10
465 1 0.748996 0.0481893 0.5 1 -1.11022e-16
466 1 0.754925 0.0584577 0.5 1 -3.55642e-10
467 1 0.760853 0.0481893 0.5 1 -1.11022e-16
468 1 0.766782 0.0584577 0.5 1 -3.55642e-10
469 1 0.77271 0.0481893 0.5 1 -3.70074e-17
470 1 0.778638 0.0584577 0.5 1 3.55642e-10
471 1 0.784567 0.0481893 0.5 1 1.85037e-17
472 1 0.790495 0.0584577 0.5 1 3.55642e-10
473 1 0.796424 0.0481893 0.5 1 -1.85037e-17
474 1 0.802352 0.0584577 0.5 1 3.55642e-10
475 1 0.808281 0.0481893 0.5 1 1.85037e-17
476 1 0.814209 0.0584577 0.5 1 3.55642e-10
477 1 0.820138 0.0481893 0.5 1 -1.85037e-17
478 1 0.826066 0.0584577 0.5 1 3.55642e-10
479 1 0.831995 0.0481893 0.5 1 1.85037e-17
480 1 0.837923 0.0584577 0.5 1 3.55642e-10
481 1 0.843852 0.0481893 0.5 1 -1.85037e-17
482 1 0.84978 0.0584577 0.5 1 3.55642e-10
483 1 0.855709 0.0481893 0.5 1 1.85037e-17
484 1 0.861637 0.0584577 0.5 1 3.55642e-10
485 1 0.867566 0.0481893 0.5 1 -4.62593e-17
486 1 0.873494 0.0584577 0.5 1 3.55642e-10
487 1 0.879423 0.0481893 0.5 1 1.85037e-17
488 1 0.885351 0.0584577 0.5 1 3.55642e-10
489 1 0.89128 0.0481893 0.5 1 1.85037e-17
490 1 0.897208 0.0584577 0.5 1 0
491 1 0.903136 0.0481893 0.5 1 1.85037e-17
492 1 0.909065 0.0584577 0.5 1 -3.55642e-10
493 1 0.914993 0.0481893 0.5 1 -1.85037e-17
494 1 0.920922 0.0584577 0.5 1 -3.55642e-10
495 1 0.92685 0.0481893 0.5 1 1.85037e-17
496 1 0.932779 0.0584577 0.5 1 -3.55642e-10
497 1 0.938707 0.0481893 0.5 1 -1.85037e-17
498 1 0.944636 0.0584577 0.5 1 -3.55642e-10
499 1 0.950564 0.0481893 0.5 1 1.85037e-17
500 1 0.956493 0.0584577 0.5 1 -3.55642e-10
501 1 0.962421 0.0481893 0.5 1 -1.85037e-17
502 1 0.96835 0.0584577 0.5 1 -3.55642e-10
503 1 0.974278 0.0481893 0.5 1 1.85037e-17
504 1 0.980207 0.0584577 0.5 0.995253 -2.01926e-07
505 1 0.985756 0.0481893 0.5 0.990799 -1.66533e-16
506 1 0.992064 0.0584577 0.5 0.751112 -3.53761e-06
507 1 0.995317 0.0481893 0.5 0.230149 1.9799e-15
508 1 0.00468337 0.0687262 0.5 0.230143 -3.49505e-06
509 1 0.00793634 0.0789946 0.5 0.751119 -2.16493e-15
510 1 0.0142439 0.0687262 0.5 0.990819 2.699e-07
511 1 0.0197933 0.0789946 0.5 0.995264 -8.32667e-17
512 1 0.0257218 0.0687262 0.5 1 3.55689e-11
513 1 0.0316502 0.0789946 0.5 1 8.32667e-17
514 1 0.0375787 0.0687262 0.5 1 1.0177e-16
515 1 0.0435072 0.0789946 0.5 1 9.25186e-17
516 1 0.0494357 0.0687262 0.5 1 0
517 1 0.0553642 0.0789946 0.5 1 -8.32667e-17
518 1 0.0612926 0.0687262 0.5 1 -3.55689e-11
519 1 0.0672211 0.0789946 0.5 1 -9.25186e-17
520 1 0.0731496 0.0687262 0.5 1 -1.0177e-16
521 1 0.0790781 0.0789946 0.5 1 0
522 1 0.0850066 0.0687262 0.5 1 3.55689e-11
523 1 0.090935 0.0789946 0.5 1 8.32667e-17
524 1 0.0968635 0.0687262 0.5 1 1.0177e-16
525 1 0.102792 0.0789946 0.5 1 1.11022e-16
526 1 0.10872 0.0687262 0.5 1 -3.55642e-10
527 1 0.114649 0.0789946 0.5 1 1.85037e-17
528 1 0.120577 0.0687262 0.5 1 -3.55642e-10
529 1 0.126506 0.0789946 0.5 1 -4.62593e-17
530 1 0.132434 0.0687262 0.5 1 -3.55642e-10
531 1 0.138363 0.0789946 0.5 1 1.85037e-17
532 1 0.144291 0.0687262 0.5 1 -3.55642e-10
533 1 0.15022 0.0789946 0.5 1 1.85037e-17
534 1 0.156148 0.0687262 0.5 1 -3.55642e-10
535 1 0.162077 0.0789946 0.5 1 -1.85037e-17
536 1 0.168005 0.0687262 0.5 1 -3.55642e-10
537 1 0.173934 0.0789946 0.5 1 1.85037e-17
538 1 0.179862 0.0687262 0.5 1 -3.55642e-10
539 1 0.185791 0.0789946 0.5 1 -1.85037e-17
540 1 0.191719 0.0687262 0.5 1 -3.55642e-10
541 1 0.197648 0.0789946 0.5 1 1.85037e-17
542 1 0.203576 0.0687262 0.5 1 -3.55642e-10
543 1 0.209505 0.0789946 0.5 1 -1.85037e-17
544 1 0.215433 0.0687262 0.5 1 -3.55642e-10
545 1 0.221362 0.0789946 0.5 1 -1.85037e-17
546 1 0.22729 0.0687262 0.5 1 -1.29526e-16
547 1 0.233218 0.0789946 0.5 1 -1.11022e-16
548 1 0.239147 0.0687262 0.5 1 3.55642e-10
549 1 0.245075 0.0789946 0.5 1 -1.11022e-16
550 1 0.251004 0.0687262 0.5 1 3.55642e-10
551 1 0.256932 0.0789946 0.5 1 -1.11022e-16
552 1 0.262861 0.0687262 0.5 1 3.55642e-10
553 1 0.268789 0.0789946 0.5 1 -1.11022e-16
554 1 0.274718 0.0687262 0.5 1 3.55642e-10
555 1 0.280646 0.0789946 0.5 1 -1.11022e-16
556 1 0.286575 0.0687262 0.5 1 3.55642e-10
557 1 0.292503 0.0789946 0.5 1 -1.11022e-16
558 1 0.298432 0.0687262 0.5 1 3.55642e-10
559 1 0.30436 0.0789946 0.5 1 -1.85037e-17
560 1 0.310289 0.0687262 0.5 1 3.55642e-10
561 1 0.316217 0.0789946 0.5 1 1.85037e-17
562 1 0.322146 0.0687262 0.5 1 3.55642e-10
563 1 0.328074 0.0789946 0.5 1 -1.11022e-16
564 1 0.334003 0.0687262 0.5 1 3.55642e-10
565 1 0.339931 0.0789946 0.5 1 -1.11022e-16
566 1 0.34586 0.0687262 0.5 1 3.55642e-10
567 1 0.351788 0.0789946 0.5 1 -1.11022e-16
568 1 0.357717 0.0687262 0.5 1 3.55642e-10
569 1 0.363645 0.0789946 0.5 1 9.25186e-18
570 1 0.369573 0.0687262 0.5 1 -3.55642e-10
571 1 0.375502 0.0789946 0.5 1 1.11022e-16
572 1 0.38143 0.0687262 0.5 1 -3.55642e-10
573 1 0.387359 0.0789946 0.5 1 1.11022e-16
574 1 0.393287 0.0687262 0.5 1 -3.55642e-10
575 1 0.399216 0.0789946 0.5 1 1.11022e-16
576 1 0.405144 0.0687262 0.5 1 -3.55642e-10
577 1 0.411073 0.0789946 0.5 1 -1.85037e-17
578 1 0.417001 0.0687262 0.5 1 -3.55642e-10
579 1 0.42293 0.0789946 0.5 1 -9.25186e-18
580 1 0.428858 0.0687262 0.5 1 -3.55642e-10
581 1 0.434787 0.0789946 0.5 1 1.85037e-17
582 1 0.440715 0.0687262 0.5 1 -3.55642e-10
583 1 0.446644 0.0789946 0.5 1 -1.29526e-16
584 1 0.452572 0.0687262 0.5 1 -3.55642e-10
585 1 0.458501 0.0789946 0.5 1 -5.55112e-17
586 1 0.464429 0.0687262 0.5 1 -3.55642e-10
587 1 0.470358 0.0789946 0.5 1 2.77556e-17
588 1 0.476286 0.0687262 0.5 1 -3.55642e-10
589 1 0.482215 0.0789946 0.5 1 1.38778e-16
590 1 0.488143 0.0687262 0.5 1 -3.55642e-10
591 1 0.494072 0.0789946 0.5 1 1.38778e-16
592 1 0.5 0.0687262 0.5 1 0
593 1 0.505928 0.0789946 0.5 1 -1.38778e-16
594 1 0.511857 0.0687262 0.5 1 3.55642e-10
595 1 0.517785 0.0789946 0.5 1 -1.38778e-16
596 1 0.523714 0.0687262 0.5 1 3.55642e-10
597 1 0.529642 0.0789946 0.5 1 -2.77556e-17
598 1 0.535571 0.0687262 0.5 1 3.55642e-10
599 1 0.541499 0.0789946 0.5 1 5.55112e-17
600 1 0.547428 0.0687262 0.5 1 3.55642e-10
601 1 0.553356 0.0789946 0.5 1 1.29526e-16
602 1 0.559285 0.0687262 0.5 1 3.55642e-10
603 1 0.565213 0.0789946 0.5 1 -1.85037e-17
604 1 0.571142 0.0687262 0.5 1 3.55642e-10
605 1 0.57707 0.0789946 0.5 1 9.25186e-18
606 1 0.582999 0.0687262 0.5 1 3.55642e-10
607 1 0.588927 0.0789946 0.5 1 1.85037e-17
608 1 0.594856 0.0687262 0.5 1 3.55642e-10
609 1 0.600784 0.0789946 0.5 1 -1.11022e-16
610 1 0.606713 0.0687262 0.5 1 3.55642e-10
611 1 0.612641 0.0789946 0.5 1 -1.11022e-16
612 1 0.61857 0.0687262 0.5 1 3.55642e-10
613 1 0.624498 0.0789946 0.5 1 -1.11022e-16
614 1 0.630427 0.0687262 0.5 1 3.55642e-10
615 1 0.636355 0.0789946 0.5 1 -9.25186e-18
616 1 0.642283 0.0687262 0.5 1 -3.55642e-10
617 1 0.648212 0.0789946 0.5 1 1.11022e-16
618 1 0.65414 0.0687262 0.5 1 -3.55642e-10
619 1 0.660069 0.0789946 0.5 1 1.11022e-16
620 1 0.665997 0.0687262 0.5 1 -3.55642e-10
621 1 0.671926 0.0789946 0.5 1 1.11022e-16
622 1 0.677854 0.0687262 0.5 1 -3.55642e-10
623 1 0.683783 0.0789946 0.5 1 -1.85037e-17
624 1 0.689711 0.0687262 0.5 1 -3.55642e-10
625 1 0.69564 0.0789946 0.5 1 1.85037e-17
626 1 0.701568 0.0687262 0.5 1 -3.55642e-10
627 1 0.707497 0.0789946 0.5 1 1.11022e-16
628 1 0.713425 0.0687262 0.5 1 -3.55642e-10
629 1 0.719354 0.0789946 0.5 1 1.11022e-16
630 1 0.725282 0.0687262 0.5 1 -3.55642e-10
631 1 0.731211 0.0789946 0.5 1 1.11022e-16
632 1 0.737139 0.0687262 0.5 1 -3.55642e-10
633 1 0.743068 0.0789946 0.5 1 1.11022e-16
634 1 0.748996 0.0687262 0.5 1 -3.55642e-10
635 1 0.754925 0.0789946 0.5 1 1.11022e-16
636 1 0.760853 0.0687262 0.5 1 -3.55642e-10
637 1 0.766782 0.0789946 0.5 1 1.11022e-16
638 1 0.77271 0.0687262 0.5 1 1.29526e-16
639 1 0.778638 0.0789946 0.5 1 1.85037e-17
640 1 0.784567 0.0687262 0.5 1 3.55642e-10
641 1 0.790495 0.0789946 0.5 1 1.85037e-17
642 1 0.796424 0.0687262 0.5 1 3.55642e-10
643 1 0.802352 0.0789946 0.5 1 -1.85037e-17
644 1 0.808281 0.0687262 0.5 1 3.55642e-10
645 1 0.814209 0.0789946 0.5 1 1.85037e-17
646 1 0.820138 0.0687262 0.5 1 3.55642e-10
647 1 0.826066 0.0789946 0.5 1 -1.85037e-17
648 1 0.831995 0.0687262 0.5 1 3.55642e-10
649 1 0.837923 0.0789946 0.5 1 1.85037e-17
650 1 0.843852 0.0687262 0.5 1 3.55642e-10
651 1 0.84978 0.0789946 0.5 1 -1.85037e-17
652 1 0.855709 0.0687262 0.5 1 3.55642e-10
653 1 0.861637 0.0789946 0.5 1 -1.85037e-17
654 1 0.867566 0.0687262 0.5 1 3.55642e-10
655 1 0.873494 0.0789946 0.5 1 4.62593e-17
656 1 0.879423 0.0687262 0.5 1 3.55642e-10
657 1 0.885351 0.0789946 0.5 1 -1.85037e-17
658 1 0.89128 0.0687262 0.5 1 3.55642e-10
659 1 0.897208 0.0789946 0.5 1 0
660 1 0.903136 0.0687262 0.5 1 -3.55642e-10
661 1 0.909065 0.0789946 0.5 1 -1.85037e-17
662 1 0.914993 0.0687262 0.5 1 -3.55642e-10
663 1 0.920922 0.0789946 0.5 1 1.85037e-17
664 1 0.92685 0.0687262 0.5 1 -3.55642e-10
665 1 0.932779 0.0789946 0.5 1 -1.85037e-17
666 1 0.938707 0.0687262 0.5 1 -3.55642e-10
667 1 0.944636 0.0789946 0.5 1 1.85037e-17
668 1 0.950564 0.0687262 0.5 1 -3.55642e-10
669 1 0.956493 0.0789946 0.5 1 -1.85037e-17
670 1 0.962421 0.0687262 0.5 1 -3.55642e-10
671 1 0.96835 0.0789946 0.5 1 1.85037e-17
672 1 0.974278 0.0687262 0.5 1 -3.55642e-10
673 1 0.980207 0.0789946 0.5 0.995254 -1.85037e-17
674 1 0.985756 0.0687262 0.5 0.990799 -2.70185e-07
675 1 0.992064 0.0789946 0.5 0.751114 2.30371e-15
676 1 0.995317 0.0687262 0.5 0.23015 3.49508e-06
677 1 0.00468337 0.089263 0.5 0.230142 2.29446e-15
678 1 0.00793634 0.0995314 0.5 0.751115 7.07533e-06
679 1 0.0142439 0.089263 0.5 0.990819 -2.31296e-16
680 1 0.0197933 0.0995314 0.5 0.995262 4.02947e-07
681 1 0.0257218 0.089263 0.5 1 8.32667e-17
682 1 0.0316502 0.0995314 0.5 1 7.11424e-11
683 1 0.0375787 0.089263 0.5 1 9.25186e-17
684 1 0.0435072 0.0995314 0.5 1 8.32667e-17
685 1 0.0494357 0.089263 0.5 1 0
686 1 0.0553642 0.0995314 0.5 1 -7.11424e-11
687 1 0.0612926 0.089263 0.5 1 -8.32667e-17
688 1 0.0672211 0.0995314 0.5 1 -8.32667e-17
689 1 0.0731496 0.089263 0.5 1 -9.25186e-17
690 1 0.0790781 0.0995314 0.5 1 0
691 1 0.0850066 0.089263 0.5 1 8.32667e-17
692 1 0.090935 0.0995314 0.5 1 7.11424e-11
693 1 0.0968635 0.089263 0.5 1 9.25186e-17
694 1 0.102792 0.0995314 0.5 1 -3.55898e-10
695 1 0.10872 0.089263 0.5 1 1.85037e-17
696 1 0.114649 0.0995314 0.5 1 -7.1133e-10
697 1 0.120577 0.089263 0.5 1 1.85037e-17
698 1 0.126506 0.0995314 0.5 1 -7.1133e-10
699 1 0.132434 0.089263 0.5 1 -4.62593e-17
700 1 0.138363 0.0995314 0.5 1 -7.1133e-10
701 1 0.144291 0.089263 0.5 1 1.85037e-17
702 1 0.15022 0.0995314 0.5 1 -7.1133e-10
703 1 0.156148 0.089263 0.5 1 -1.85037e-17
704 1 0.162077 0.0995314 0.5 1 -7.1133e-10
705 1 0.168005 0.089263 0.5 1 1.85037e-17