ITEM: TIMESTEP
0
ITEM: NUMBER OF ATOMS
9250
ITEM: BOX BOUNDS pp pp pp
-5.8359999999999999e+01 5.8359999999999999e+01
-5.8359999999999999e+01 5.8359999999999999e+01
-5.0000000000000000e-01 5.0000000000000000e-01
ITEM: ATOMS id type xs ys zs c_002[1] c_002[2]
1 1 0.202092 0.0339854 0.5 -0.717207 -0.09856
2 1 0.411979 0.131648 0.5 0.055841 -0.184634
3 1 0.907521 0.682195 0.5 0.613209 0.202991
4 1 0.189119 0.338869 0.5 0.19951 -0.780406
5 1 0.9415 0.575278 0.5 0.10334 -0.776781
6 1 0.013407 0.837217 0.5 -0.440083 0.763904
7 1 0.330511 0.724985 0.5 0.259671 -0.246719
8 1 0.69936 0.733811 0.5 -0.366108 0.509445
9 1 0.386002 0.432721 0.5 0.663377 0.0906056
10 1 0.596581 0.677085 0.5 -0.183416 -0.923073
11 1 0.443316 0.759448 0.5 -0.56401 -0.563213
12 1 0.327068 0.518174 0.5 0.633982 0.0809526
13 1 0.69092 0.263861 0.5 0.315024 -0.177063
14 1 0.387735 0.0385499 0.5 0.095949 -0.751738
15 1 0.305759 0.535276 0.5 0.622922 -0.0256366
16 1 0.482146 0.0984455 0.5 -0.252379 0.758593
17 1 0.144022 0.0196224 0.5 -0.637155 0.208181
18 1 0.419357 0.400594 0.5 -0.495007 0.545659
19 1 0.229258 0.388749 0.5 -0.314676 0.92013
20 1 0.573688 0.78747 0.5 0.00589408 -0.251187
21 1 0.964205 0.565404 0.5 -0.0957578 0.218747
22 1 0.293246 0.0969799 0.5 -0.668206 0.159172
23 1 0.892628 0.622529 0.5 -0.179977 -0.0476415
24 1 0.560677 0.570362 0.5 0.279841 0.577789
25 1 0.430468 0.78633 0.5 0.0515055 -0.379585
26 1 0.189406 0.391608 0.5 0.325784 0.586431
27 1 0.976493 0.00170872 0.5 0.0726611 0.120547
28 1 0.0664951 0.0125733 0.5 -0.227467 0.914097
29 1 0.623848 0.860993 0.5 -0.30697 0.787913
30 1 0.804406 0.596068 0.5 -0.140613 0.151032
31 1 0.667877 0.779839 0.5 -0.722078 0.553376
32 1 0.456943 0.212559 0.5 0.640458 0.424176
33 1 0.632379 0.979874 0.5 0.184721 -0.0964638
34 1 0.403835 0.479787 0.5 -0.283928 -0.145702
35 1 0.0226251 0.839281 0.5 -0.00281982 0.470602
36 1 0.7002 0.386671 0.5 0.560984 0.101569
37 1 0.380511 0.824701 0.5 -0.0400645 0.213926
38 1 0.606821 0.896628 0.5 0.270021 0.0531671
39 1 0.90169 0.582544 0.5 0.174087 -0.922802
40 1 0.825779 0.96787 0.5 0.152295 0.602853
41 1 0.391861 0.735952 0.5 0.269046 -0.394441
42 1 0.0129968 0.803247 0.5 -0.336256 -0.180744
43 1 0.377057 0.460067 0.5 -0.488798 -0.238888
44 1 0.514308 0.629061 0.5 -0.268419 -0.219462
45 1 0.322837 0.901783 0.5 -0.366532 -0.14372
46 1 0.492929 0.354288 0.5 -0.309688 -0.250282
47 1 0.894292 0.052904 0.5 -0.377252 -0.0617556
48 1 0.548665 0.67545 0.5 -0.0421596 0.218841
49 1 0.27921 0.550609 0.5 0.228514 0.332309
50 1 0.621702 0.527764 0.5 0.489127 0.00302773
51 1 0.416985 0.947144 0.5 0.454435 -0.589746
52 1 0.374929 0.725642 0.5 -0.201871 0.720274
53 1 0.698707 0.83523 0.5 0.418649 -0.250871
54 1 0.802872 0.885602 0.5 0.0567407 0.148727
55 1 0.357367 0.35606 0.5 0.368597 -0.187581
56 1 0.121558 0.405881 0.5 -0.500745 0.325928
57 1 0.863761 0.660858 0.5 -0.0347981 -0.525021
58 1 0.239613 0.19221 0.5 -0.540525 -0.0592501
59 1 0.875151 0.0574036 0.5 0.525588 -0.307275
60 1 0.15689 0.808817 0.5 -0.0116159 -0.629472
61 1 0.209154 0.539557 0.5 0.723114 0.226714
62 1 0.460884 0.339598 0.5 0.634202 0.0797635
63 1 0.193175 0.869078 0.5 0.0783519 -0.0519391
64 1 0.302047 0.732303 0.5 -0.813083 0.186132
65 1 0.799434 0.626445 0.5 -0.56227 -0.385879
66 1 0.180973 0.871722 0.5 -0.0203338 -0.811648
67 1 0.0107946 0.862533 0.5 0.759987 -0.249114
68 1 0.861265 0.285472 0.5 -0.635307 -0.578387
69 1 0.337987 0.73337 0.5 -0.471391 -0.0999201
70 1 0.699773 0.0446218 0.5 0.586591 0.52526
71 1 0.754563 0.752135 0.5 -0.072778 0.287751
72 1 0.090355 0.390178 0.5 -0.200653 -0.282211
73 1 0.607944 0.597724 0.5 -0.536847 -0.423434
74 1 0.51521 0.346915 0.5 -0.0794199 0.0686606
75 1 0.442002 0.434347 0.5 0.209291 0.237277
76 1 0.612229 0.799954 0.5 0.0346898 0.174579
77 1 0.381323 0.424491 0.5 0.63925 0.251827
78 1 0.0389353 0.868922 0.5 0.0318772 -0.803566
79 1 0.190854 0.950393 0.5 -0.432483 -0.00345091
80 1 0.32816 0.140366 0.5 -0.00302284 0.36236
81 1 0.282647 0.732984 0.5 -0.825231 -0.130973
82 1 0.787741 0.57785 0.5 -0.0290802 -0.129117
83 1 0.241963 0.501836 0.5 0.159524 -0.686048
84 1 0.589459 0.742718 0.5 -0.644187 -0.225073
85 1 0.0036096 0.339377 0.5 0.130037 0.62601
86 1 0.817506 0.0939978 0.5 -0.0842316 -0.51975
87 1 0.988792 0.572728 0.5 0.130274 0.288924
88 1 0.859678 0.832437 0.5 0.352223 0.113629
89 1 0.057875 0.181158 0.5 -0.0822471 -0.759039
90 1 0.557494 0.117633 0.5 0.542924 -0.274041
91 1 0.623392 0.546543 0.5 0.404889 0.0327773
92 1 0.428138 0.772484 0.5 0.240583 0.0200426
93 1 0.391895 0.658257 0.5 -0.220654 0.125725
94 1 0.0726088 0.868044 0.5 0.775066 -0.415626
95 1 0.48282 0.878162 0.5 0.47372 0.0518109
96 1 0.116635 0.703956 0.5 0.190653 -0.879314
97 1 0.906744 0.822849 0.5 0.260905 -0.34185
98 1 0.745269 0.826425 0.5 -0.226741 -0.675631
99 1 0.677033 0.25732 0.5 0.0243775 0.268953
100 1 0.0974721 0.978765 0.5 0.575519 -0.443187
101 1 0.464882 0.881575 0.5 -0.740372 0.542186
102 1 0.322842 0.181108 0.5 0.156872 -0.35281
103 1 0.354712 0.620444 0.5 0.142536 -0.769549
104 1 0.724523 0.378291 0.5 0.0703362 0.21751
105 1 0.526543 0.833769 0.5 0.000639524 -0.799046
106 1 0.410507 0.0253161 0.5 -0.324217 -0.560064
107 1 0.239005 0.644036 0.5 -0.0353262 -0.642993
108 1 0.230461 0.293155 0.5 0.446869 -0.0115213
109 1 0.915421 0.614416 0.5 -0.739342 -0.32656
110 1 0.318172 0.348086 0.5 -0.0449674 0.469596
111 1 0.01993 0.597998 0.5 0.304313 0.0525399
112 1 0.79058 0.859416 0.5 0.451039 -0.12059
113 1 0.903561 0.898314 0.5 0.308752 -0.324078
114 1 0.321149 0.789458 0.5 0.298703 0.428631
115 1 0.449885 0.308709 0.5 0.145142 -0.845304
116 1 0.193742 0.130989 0.5 0.119939 0.274761
117 1 0.368275 0.372447 0.5 -0.4168 0.0809383
118 1 0.782798 0.121894 0.5 0.311313 0.389628
119 1 0.187011 0.537594 0.5 0.555128 0.284853
120 1 0.140067 0.624958 0.5 0.175403 0.0444183
121 1 0.0891243 0.706361 0.5 -0.878015 -0.0118622
122 1 0.368854 0.872611 0.5 0.537791 0.697262
123 1 0.0434496 0.591583 0.5 -0.109991 -0.311229
124 1 0.156564 0.956572 0.5 -0.0196317 0.645553
125 1 0.275706 0.85947 0.5 -0.100545 0.396363
126 1 0.822275 0.390354 0.5 -0.10404 0.320746
127 1 0.0707058 0.0592992 0.5 0.294301 -0.555414
128 1 0.3381 0.914344 0.5 -0.657679 -0.31051
129 1 0.456828 0.911398 0.5 0.0637808 -0.808018
130 1 0.582493 0.37705 0.5 0.130559 -0.357629
131 1 0.730838 0.0739294 0.5 -0.192817 0.385142
132 1 0.177186 0.944957 0.5 0.139413 -0.282148
133 1 0.351734 0.0631726 0.5 0.620865 0.573057
134 1 0.0651721 0.769329 0.5 0.467615 0.563207
135 1 0.936257 0.348462 0.5 0.258244 -0.363247
136 1 0.725112 0.793607 0.5 -0.074844 -0.180297
137 1 0.556105 0.293777 0.5 0.19694 0.476046
138 1 0.165758 0.0997503 0.5 -0.58444 0.258212
139 1 0.813609 0.362524 0.5 -0.329504 0.204594
140 1 0.819369 0.437742 0.5 0.341901 0.0980274
141 1 0.432544 0.815279 0.5 0.766981 -0.473146
142 1 0.431664 0.648259 0.5 0.108952 0.400039
143 1 0.0548282 0.273326 0.5 0.561661 0.428344
144 1 0.0981386 0.856898 0.5 -0.00476163 -0.680564
145 1 0.343751 0.826503 0.5 -0.434396 -0.174031
146 1 0.0498311 0.17478 0.5 -0.537437 -0.644354
147 1 0.704327 0.919784 0.5 -0.0560965 0.688572
148 1 0.763675 0.256064 0.5 0.184915 -0.200716
149 1 0.526094 0.70304 0.5 -0.161057 -0.0960673
150 1 0.24839 0.468644 0.5 -0.198809 0.595489
151 1 0.37164 0.636359 0.5 -0.508199 -0.490389
152 1 0.781734 0.961635 0.5 -0.622247 -0.43068
153 1 0.00174977 0.0847587 0.5 -0.538215 0.00097448
154 1 0.4009 0.611938 0.5 0.119155 -0.118093
155 1 0.346406 0.348482 0.5 -0.57789 0.126191
156 1 0.630446 0.434873 0.5 -0.190214 -0.760406
157 1 0.972633 0.246772 0.5 0.0878675 0.722181
158 1 0.89187 0.452949 0.5 -0.519046 -0.51526
159 1 0.248887 0.755658 0.5 -0.260357 -0.639712
160 1 0.326523 0.974944 0.5 0.159431 0.106702
161 1 0.854759 0.590185 0.5 0.942831 -0.164029
162 1 0.744714 0.250217 0.5 -0.259507 0.557977
163 1 0.804238 0.166259 0.5 -0.100508 0.0539698
164 1 0.192204 0.0372244 0.5 -0.114808 -0.496097
165 1 0.826437 0.95032 0.5 0.726984 -0.102285
166 1 0.668814 0.790325 0.5 -0.457185 0.745418
167 1 0.0668965 0.340225 0.5 0.45045 -0.318302
168 1 0.827434 0.0173524 0.5 -0.528503 -0.713073
169 1 0.219236 0.901123 0.5 0.602521 0.437044
170 1 0.996347 0.732205 0.5 0.543204 0.275277
171 1 0.205171 0.158594 0.5 -0.690338 -0.322737
172 1 0.0311128 0.71978 0.5 0.49223 0.0717919
173 1 0.841141 0.717598 0.5 -0.795254 -0.310448
174 1 0.328783 0.497989 0.5 0.253197 0.159542
175 1 0.14622 0.427129 0.5 -0.117275 -0.282618
176 1 0.145119 0.922908 0.5 0.0304285 -0.799752
177 1 0.954147 0.0176053 0.5 -0.0567051 -0.433005
178 1 0.628012 0.76389 0.5 -0.47996 -0.0360788
179 1 0.0918151 0.874951 0.5 0.366239 -0.852259
180 1 0.966246 0.678878 0.5 -0.792408 -0.332104
181 1 0.126783 0.998965 0.5 -0.572784 0.107199
182 1 0.298782 0.656136 0.5 0.212477 0.504687
183 1 0.00515133 0.685532 0.5 -0.0931956 0.438869
184 1 0.287165 0.937883 0.5 -0.0955536 0.194945
185 1 0.899398 0.660922 0.5 0.577596 0.0335511
186 1 0.302626 0.995536 0.5 0.044256 0.376997
187 1 0.749937 0.852188 0.5 0.0731871 0.0764514
188 1 0.928925 0.850861 0.5 -0.121235 0.376829
189 1 0.96857 0.910471 0.5 -0.0356964 0.164523
190 1 0.0464135 0.112813 0.5 -0.259006 0.042716
191 1 0.124373 0.955385 0.5 0.176542 -0.18973
192 1 0.698454 0.0922505 0.5 -0.00937553 0.413331
193 1 0.58375 0.932994 0.5 -0.467483 0.819979
194 1 0.995129 0.509373 0.5 -0.624124 -0.0535485
195 1 0.658184 0.92845 0.5 0.240768 0.35878
196 1 0.411745 0.782148 0.5 0.749674 -0.392823
197 1 0.895693 0.613192 0.5 -0.713882 -0.348443
198 1 0.941245 0.280158 0.5 -0.231883 -0.23185
199 1 0.181477 0.0489901 0.5 -0.503288 -0.283632
200 1 0.00748095 0.652884 0.5 0.4215 -0.552849
201 1 0.961651 0.882881 0.5 0.0616972 -0.509296
202 1 0.502523 0.710557 0.5 0.0957534 0.072422
203 1 0.412913 0.938532 0.5 0.381438 -0.350725
204 1 0.884583 0.630849 0.5 -0.253887 0.297281
205 1 0.192199 0.500485 0.5 -0.190037 0.242298
206 1 0.37065 0.713728 0.5 0.535461 0.486359
207 1 0.418446 0.112245 0.5 -0.010703 -0.34475
208 1 0.778818 0.783867 0.5 -0.358862 -0.0875833
209 1 0.027842 0.512107 0.5 -0.71541 0.437581
210 1 0.678901 0.683708 0.5 0.0400642 -0.19124
211 1 0.116677 0.894198 0.5 0.478472 -0.0780456
212 1 0.376575 0.366021 0.5 -0.367924 -0.412254
213 1 0.912939 0.185294 0.5 -0.762609 -0.236828
214 1 0.0904673 0.733459 0.5 -0.0895873 -0.241776
215 1 0.542832 0.0573094 0.5 -0.425629 0.0145545
216 1 0.820342 0.34401 0.5 -0.197392 0.619846
217 1 0.0215193 0.0602816 0.5 0.57309 -0.321073
218 1 0.395858 0.366186 0.5 -0.461676 0.523973
219 1 0.0428553 0.833751 0.5 -0.29484 0.667639
220 1 0.0404039 0.736599 0.5 0.261135 -0.110574
221 1 0.961556 0.837896 0.5 0.158962 0.172399
222 1 0.8575 0.134522 0.5 0.425309 0.0887201
223 1 0.559307 0.844381 0.5 -0.135482 0.729889
224 1 0.596362 0.603074 0.5 -0.559588 -0.548386
225 1 0.112532 0.714377 0.5 -0.0705722 -0.276693
226 1 0.7103 0.524457 0.5 -0.0698809 0.0916925
227 1 0.0259541 0.931703 0.5 0.172111 0.206342
228 1 0.0671247 0.960913 0.5 0.769886 0.312261
229 1 0.897911 0.683213 0.5 -0.383983 -0.219464
230 1 0.565625 0.000617187 0.5 0.52581 -0.593672
231 1 0.152347 0.00227881 0.5 -0.748228 0.163327
232 1 0.0590791 0.283591 0.5 0.517948 -0.000464452
233 1 0.113574 0.219903 0.5 -0.371601 -0.103683
234 1 0.170721 0.893071 0.5 0.0284328 0.491094
235 1 0.206377 0.359932 0.5 -0.838279 0.31286
236 1 0.892007 0.653265 0.5 0.491411 0.168143
237 1 0.446867 0.903581 0.5 -0.064165 -0.445009
238 1 0.248485 0.979319 0.5 0.520893 -0.341962
239 1 0.750241 0.104683 0.5 -0.200147 0.269545
240 1 0.82378 0.300922 0.5 -0.65508 0.283579
241 1 0.175934 0.518004 0.5 -0.516995 0.0202761
242 1 0.702531 0.745199 0.5 0.361093 0.049612
243 1 0.00153176 0.572708 0.5 0.530063 -0.673934
244 1 0.870934 0.147147 0.5 0.0804444 -0.0990743
245 1 0.389009 0.300202 0.5 -0.310975 0.19023
246 1 0.666031 0.812169 0.5 -0.163684 0.503831
247 1 0.135265 0.663822 0.5 -0.632044 -0.391747
248 1 0.300838 0.983369 0.5 -0.475119 -0.354808
249 1 0.0988135 0.902427 0.5 0.342764 0.148562
250 1 0.0749282 0.898186 0.5 -0.764146 0.135006
251 1 0.020386 0.990032 0.5 -0.496676 0.0051581
252 1 0.178879 0.00738455 0.5 0.216548 -0.319323
253 1 0.280964 0.171472 0.5 0.13625 -0.329187
254 1 0.0178841 0.324172 0.5 -0.378801 0.49271
255 1 0.0486567 0.0608788 0.5 0.200206 -0.304443
256 1 0.0137593 0.77513 0.5 0.0649636 0.404854
257 1 0.244503 0.223484 0.5 -0.266389 0.245836
258 1 0.43569 0.321103 0.5 0.194858 -0.232456
259 1 0.271015 0.749114 0.5 0.214045 0.137589
260 1 0.522344 0.975598 0.5 0.269132 0.544409
261 1 0.204961 0.784289 0.5 -0.406463 0.54349
262 1 0.694794 0.855315 0.5 0.310027 -0.860029
263 1 0.279065 0.954378 0.5 -0.315548 0.423865
264 1 0.789771 0.194317 0.5 0.268495 0.483662
265 1 0.22775 0.0230421 0.5 0.430968 0.507325
266 1 0.838001 0.89364 0.5 0.079045 0.127395
267 1 0.0331868 0.665834 0.5 -0.45526 -0.0315571
268 1 0.865783 0.999903 0.5 -0.692369 -0.393226
269 1 0.0152826 0.215998 0.5 -0.208453 -0.132023
270 1 0.787464 0.850263 0.5 -0.250844 -0.189069
271 1 0.683105 0.659281 0.5 -0.273937 -0.440835
272 1 0.623308 0.956674 0.5 -0.0241711 0.193325
273 1 0.951294 0.855034 0.5 0.578381 -0.50825
274 1 0.682046 0.905061 0.5 0.546579 0.468973
275 1 0.390895 0.393345 0.5 -0.300833 -0.0510613
276 1 0.285627 0.968561 0.5 0.262545 -0.489924
277 1 0.690599 0.748485 0.5 0.151172 -0.621804
278 1 0.0198502 0.224415 0.5 0.0927252 -0.40912
279 1 0.722844 0.080068 0.5 -0.210044 0.752985
280 1 0.439572 0.203554 0.5 0.205439 -0.61311
281 1 0.602357 0.936006 0.5 0.243671 0.434121
282 1 0.397779 0.837984 0.5 -0.252476 -0.434884
283 1 0.231224 0.13752 0.5 0.227473 0.127267
284 1 0.645213 0.840126 0.5 -0.124361 0.0735731
285 1 0.683181 0.534047 0.5 -0.292635 -0.61505
286 1 0.873143 0.314819 0.5 0.928486 0.235093
287 1 0.281271 0.222495 0.5 -0.122819 0.188042
288 1 0.302267 0.807388 0.5 -0.136154 0.318472
289 1 0.264169 0.266647 0.5 0.0386074 -0.517838
290 1 0.902616 0.670152 0.5 0.621376 0.395397
291 1 0.899307 0.731419 0.5 -0.197 0.455464
292 1 0.21457 0.805659 0.5 -0.372397 -0.496004
293 1 0.628674 0.793837 0.5 -0.160252 0.376049
294 1 0.400016 0.225402 0.5 -0.829753 0.279609
295 1 0.797492 0.482688 0.5 0.215662 0.194418
296 1 0.13044 0.356723 0.5 0.32745 0.176247
297 1 0.419981 0.886562 0.5 0.575656 0.721638
298 1 0.586586 0.135337 0.5 0.0116686 0.403879
299 1 0.868517 0.767919 0.5 -0.342529 -0.841891
300 1 0.933129 0.274946 0.5 -0.476131 -0.411321
301 1 0.0640743 0.226653 0.5 -0.279938 0.627612
302 1 0.155662 0.718828 0.5 0.237954 -0.725868
303 1 0.970053 0.214531 0.5 -0.585192 -0.0807661
304 1 0.00602796 0.937366 0.5 0.314798 -0.333839
305 1 0.49765 0.866298 0.5 0.635462 -0.249408
306 1 0.372253 0.347765 0.5 0.881282 0.0279102
307 1 0.911178 0.0669662 0.5 0.201787 -0.180933
308 1 0.426096 0.242608 0.5 0.606074 0.502378
309 1 0.0501075 0.330146 0.5 0.719946 0.487087
310 1 0.0956076 0.0559459 0.5 0.238807 0.177643
311 1 0.11119 0.209306 0.5 -0.300733 0.0750082
312 1 0.188527 0.00655705 0.5 0.197103 -0.199668
313 1 0.16496 0.350903 0.5 -0.0238354 -0.241123
314 1 0.818746 0.6006 0.5 0.27747 -0.5845
315 1 0.665861 0.909896 0.5 -0.346112 -0.201261
316 1 0.551745 0.729188 0.5 -0.328625 0.118222
317 1 0.521737 0.277825 0.5 -0.186686 -0.266397
318 1 0.318065 0.969566 0.5 -0.0170795 -0.0396554
319 1 0.859615 0.0507853 0.5 -0.332046 -0.019761
320 1 0.00483737 0.440222 0.5 0.541932 0.531426
321 1 0.924412 0.791883 0.5 0.516464 0.168194
322 1 0.188329 0.351009 0.5 -0.390657 -0.0324013
323 1 0.700253 0.344736 0.5 0.0810567 -0.192022
324 1 0.390228 0.856531 0.5 0.00583194 0.00544498
325 1 0.402725 0.274192 0.5 -0.458876 0.310727
326 1 0.857384 0.891133 0.5 -0.507663 -0.370216
327 1 0.708663 0.990681 0.5 -0.259903 -0.81426
328 1 0.0794047 0.993642 0.5 0.136176 0.0320517
329 1 0.43314 0.281506 0.5 -0.0378443 0.512983
330 1 0.41131 0.910141 0.5 -0.241544 -0.805013
331 1 0.136294 0.911789 0.5 0.439923 -0.358004
332 1 0.16937 0.245843 0.5 0.0122502 -0.494549
333 1 0.134605 0.758931 0.5 -0.105278 -0.844898
334 1 0.20175 0.957832 0.5 -0.149771 0.487884
335 1 0.760653 0.97859 0.5 0.168242 -0.252113
336 1 0.541839 0.988086 0.5 -0.531706 -0.310153
337 1 0.0670348 0.983859 0.5 0.250513 0.0196163
338 1 0.665292 0.669742 0.5 -0.761407 -0.175546
339 1 0.794788 0.215025 0.5 0.146022 0.470528
340 1 0.603471 0.0380749 0.5 -0.416491 -0.261358
341 1 0.782364 0.682352 0.5 -0.247908 -0.26594
342 1 0.579443 0.224013 0.5 0.398571 -0.589179
343 1 0.783607 0.702877 0.5 -0.395486 0.790794
344 1 0.778717 0.172072 0.5 -0.532865 -0.123096
345 1 0.00901337 0.706676 0.5 -0.574359 0.217382
346 1 0.873238 0.633562 0.5 -0.346406 -0.307238
347 1 0.554185 0.0411737 0.5 -0.747944 -0.0612263
348 1 0.359174 0.295312 0.5 0.281949 0.225653
349 1 0.0331141 0.627498 0.5 0.491899 0.0952977
350 1 0.427388 0.806621 0.5 0.268702 -0.438413
351 1 0.815682 0.74932 0.5 -0.449861 -0.011653
352 1 0.340142 0.301646 0.5 -0.313171 0.380908
353 1 0.56314 0.0473552 0.5 -0.932545 -0.0611796
354 1 0.0975432 0.14256 0.5 -0.223191 0.371554
355 1 0.441283 0.769653 0.5 0.104202 -0.704333
356 1 0.578387 0.833491 0.5 -0.404732 -0.496131
357 1 0.0745573 0.285031 0.5 0.513689 0.302757
358 1 0.151324 0.0433982 0.5 0.560434 -0.550023
359 1 0.246563 0.554809 0.5 0.303023 -0.63825
360 1 0.824268 0.399979 0.5 -0.0938802 -0.367206
361 1 0.865715 0.779235 0.5 -0.659793 -0.171034
362 1 0.76199 0.197537 0.5 -0.0985308 0.372984
363 1 0.885769 0.239071 0.5 -0.394683 -0.513552
364 1 0.879993 0.902884 0.5 0.278087 -0.242322
365 1 0.123363 0.447434 0.5 -0.568738 0.138226
366 1 0.232495 0.675075 0.5 -0.844542 0.300998
367 1 0.961682 0.397403 0.5 -0.485782 0.417045
368 1 0.422011 0.974052 0.5 -0.228697 -0.0386936
369 1 0.289421 0.417658 0.5 -0.330621 -0.489612
370 1 0.738085 0.45561 0.5 0.666694 0.620456
371 1 0.750163 0.501705 0.5 -0.585336 0.0612023
372 1 0.0630577 0.199285 0.5 0 0
373 1 0.549478 0.759113 0.5 0 0
374 1 0.719274 0.451169 0.5 0.0425055 0.365812
375 1 0.947354 0.433373 0.5 0.338312 -0.067665
376 1 0.560146 0.878001 0.5 -0.0432923 -0.0336318
377 1 0.495804 0.800995 0.5 0.894657 0.214386
378 1 0.0311593 0.974574 0.5 0.0129258 -0.590083
379 1 0.125632 0.343768 0.5 0.648544 0.263181
380 1 0.640757 0.41912 0.5 -0.278021 0.370809
381 1 0.458032 0.368877 0.5 0.162923 -0.443934
382 1 0.831591 0.0567152 0.5 -0.778276 -0.589467
383 1 0.791827 0.236039 0.5 -0.543802 -0.212557
384 1 0.0286422 0.858548 0.5 0.116699 -0.0203473
385 1 0.241814 0.749373 0.5 0.166154 -0.329098
386 1 0.815202 0.932344 0.5 0.231977 -0.283473
387 1 0.553345 0.163436 0.5 -0.696113 -0.13564
388 1 0.0113167 0.287847 0.5 0.636368 0.108225
389 1 0.446393 0.885863 0.5 0.0698962 0.58694
390 1 0.999759 0.528073 0.5 -0.0532104 -0.0288907
391 1 0.150136 0.831577 0.5 -0.00448787 -0.640053
392 1 0.993939 0.255625 0.5 -0.346466 -0.390638
393 1 0.329712 0.741098 0.5 -0.198042 -0.0120282
394 1 2e-05 0.0236438 0.5 0.791176 -0.459521
395 1 0.950831 0.924156 0.5 0.178186 0.208195
396 1 0.113994 0.747232 0.5 -0.310054 0.682201
397 1 0.184829 0.813623 0.5 0.34725 -0.304495
398 1 0.5164 0.699376 0.5 0 0
399 1 0.640275 0.284519 0.5 0.0574079 -0.536216
400 1 0.823314 0.505328 0.5 -0.347329 0.0835529
401 1 0.87428 0.784056 0.5 -0.361428 -0.121951
402 1 0.0143684 0.739211 0.5 0.44222 -0.407442
403 1 0.132381 0.811647 0.5 0.0886068 0.101266
404 1 0.414025 0.583364 0.5 0.609468 0.48639
405 1 0.253975 0.532519 0.5 -0.149048 -0.13844
406 1 0.0963021 0.074621 0.5 0.426892 -0.512254
407 1 0.497471 0.185963 0.5 0.569844 -0.0588244
408 1 0.542837 0.0183969 0.5 0.247089 0.327378
409 1 0.349435 0.29574 0.5 0.152263 0.426004
410 1 0.0140623 0.680801 0.5 -0.136457 0.488304
411 1 0.956068 0.137214 0.5 -0.138879 -0.677851
412 1 0.32519 0.264918 0.5 0.186576 0.144304
413 1 0.687537 0.579299 0.5 -0.0456195 -0.251433
414 1 0.981055 0.885732 0.5 -0.00745475 0.295508
415 1 0.763716 0.806335 0.5 0.119415 -0.165511
416 1 0.28 0.357053 0.5 -0.293182 0.16702
417 1 0.659457 0.625313 0.5 -0.892903 -0.283736
418 1 0.174504 0.813995 0.5 0.801886 -0.444343
419 1 0.78687 0.179234 0.5 -0.33566 -0.537431
420 1 0.97287 0.0349085 0.5 -0.442477 -0.489396
421 1 0.684396 0.0505275 0.5 0.194434 0.28068
422 1 0.0138597 0.343853 0.5 -0.657351 0.461935
423 1 0.206719 0.276571 0.5 0.82513 0.136572
424 1 0.6913 0.382775 0.5 -0.401566 -0.573383
425 1 0.0987031 0.276806 0.5 0.357397 -0.466898
426 1 0.701153 0.263895 0.5 0.454513 -0.0119665
427 1 0.509077 0.883284 0.5 -0.0340252 -0.0592718
428 1 0.344784 0.970735 0.5 -0.410016 0.728558
429 1 0.510324 0.576111 0.5 0.884281 0.279652
430 1 0.452375 0.735739 0.5 -0.301613 0.349309
431 1 0.626284 0.0139087 0.5 -0.531129 -0.310816
432 1 0.814491 0.501154 0.5 -0.302169 0.00842245
433 1 0.81749 0.53258 0.5 0.386212 0.656352
434 1 0.107488 0.764063 0.5 0.210066 0.228754
435 1 0.54859 0.202516 0.5 -0.0590643 -0.300548
436 1 0.986073 0.135125 0.5 0.10517 0.1758
437 1 0.735554 0.916491 0.5 -0.0996745 -0.753684
438 1 0.837619 0.158094 0.5 0.468148 0.754875
439 1 0.0927759 0.340755 0.5 0.417001 0.095168
440 1 0.771797 0.0466618 0.5 -0.396438 0.482404
441 1 0.875937 0.994425 0.5 -0.333222 0.0798777
442 1 0.000969962 0.757513 0.5 0.105527 -0.270956
443 1 0.262543 0.0700014 0.5 0.241519 0.548878
444 1 0.913689 0.234403 0.5 -0.15021 -0.184904
445 1 0.993052 0.0132591 0.5 -0.125398 -0.412208
446 1 0.214003 0.620735 0.5 0.544442 -0.362627
447 1 0.411267 0.325814 0.5 -0.646602 0.290838
448 1 0.656109 0.143179 0.5 -0.376728 0.171582
449 1 0.437074 0.998949 0.5 0.348121 0.551366
450 1 0.652166 0.468454 0.5 -0.608847 -0.418826
451 1 0.468317 0.177753 0.5 0.700991 -0.13175
452 1 0.975762 0.132019 0.5 -0.409552 0.334216
453 1 0.554171 0.578024 0.5 0.00062291 0.515771
454 1 0.361928 0.831209 0.5 0 0
455 1 0.25796 0.81295 0.5 0.633205 0.135198
456 1 0.559886 0.488857 0.5 0 0
457 1 0.570451 0.213744 0.5 0.372134 -0.220503
458 1 0.625243 0.516996 0.5 0.389825 -0.822732
459 1 0.444232 0.331513 0.5 -0.0634135 -0.729626
460 1 0.634868 0.361783 0.5 -0.202805 -0.197217
461 1 0.466455 0.239579 0.5 0.517359 0.784624
462 1 0.0732585 0.0378979 0.5 0.521979 -0.0728331
463 1 0.502529 0.875649 0.5 0.285613 -0.0879185
464 1 0.731873 0.160598 0.5 -0.600639 0.270334
465 1 0.275296 0.121636 0.5 0.747392 -0.356926
466 1 0.119025 0.694617 0.5 0.143418 -0.531863
467 1 0.700293 0.411029 0.5 -0.144636 -0.499977
468 1 0.320483 0.663357 0.5 0.307193 0.586304
469 1 0.715831 0.247866 0.5 0.564898 -0.00954679
470 1 0.170148 0.0522281 0.5 0.139195 -0.0880547
471 1 0.801557 0.903454 0.5 0.221033 0.199189
472 1 0.0718295 0.686537 0.5 -0.766768 -0.0726614
473 1 0.657054 0.807756 0.5 -0.617906 0.0896554
474 1 0.648518 0.760373 0.5 -0.227784 -0.559313
475 1 0.839711 0.06243 0.5 -0.846774 -0.221735
476 1 0.793049 0.347891 0.5 0.252634 -0.045342
477 1 0.0200614 0.766674 0.5 0.249223 0.0147648
478 1 0.100507 0.0273008 0.5 0.317014 -0.0324385
479 1 0.4319 0.932645 0.5 0.743672 -0.274495
480 1 0.898983 0.346289 0.5 -0.206075 -0.182633
481 1 0.989974 0.608125 0.5 -0.234961 0.387672
482 1 0.0519158 0.947908 0.5 0 0
483 1 0.727631 0.666196 0.5 -0.0703063 -0.0378533
484 1 0.861306 0.467761 0.5 -0.718464 -0.498088
485 1 0.685022 0.464697 0.5 0.711726 -0.175115
486 1 0.535503 0.0640233 0.5 -0.32291 0.577268
487 1 0.716444 0.763265 0.5 0.29022 -0.0594397
488 1 0.367459 0.412267 0.5 0.136939 0.24308
489 1 0.378952 0.992585 0.5 0.596767 -0.430938
490 1 0.970318 0.401925 0.5 -0.599413 -0.0129158
491 1 0.310848 0.289105 0.5 0.0735659 0.318483
492 1 0.847982 0.569197 0.5 -0.170503 0.83816
493 1 0.0899398 0.267947 0.5 -0.642341 -0.268
494 1 0.102653 0.570154 0.5 0.0187736 -0.698185
495 1 0.946942 0.517289 0.5 0.0509427 -0.563587
496 1 0.839983 0.981254 0.5 -0.579035 -0.58354
497 1 0.547527 0.00983995 0.5 0.503088 0.348428
498 1 0.0344244 0.0764307 0.5 0.369967 0.00844838
499 1 0.0284613 0.0938421 0.5 -0.921476 0.177257
500 1 0.626397 0.707819 0.5 -0.16487 -0.610844
501 1 0.0109556 0.977566 0.5 0.100912 -0.565391
502 1 0.852849 0.289666 0.5 -0.482362 -0.0816899
503 1 0.891403 0.115224 0.5 -0.404729 -0.290669
504 1 0.654878 0.18928 0.5 -0.279643 0.484345
505 1 0.949472 0.728715 0.5 -0.386826 -0.0360608
506 1 0.80936 0.635775 0.5 0.521233 0.16974
507 1 0.405871 0.929742 0.5 0.0579405 -0.420141
508 1 0.157302 0.876143 0.5 0.568301 0.0267473
509 1 0.027084 0.270683 0.5 -0.0318328 -0.786023
510 1 0.428204 0.111677 0.5 0.054658 -0.547663
511 1 0.229849 0.206989 0.5 -0.644556 0.251489
512 1 0.210082 0.210614 0.5 -0.422911 0.152495
513 1 0.737125 0.581649 0.5 0.0338757 -0.532172
514 1 0.405913 0.874582 0.5 0.277235 0.499031
515 1 0.144544 0.822351 0.5 -0.151481 -0.492596
516 1 0.0671529 0.0486588 0.5 0.566565 -0.19196
517 1 0.813595 0.0199464 0.5 0.0979125 0.10018
518 1 0.465199 0.161951 0.5 0.230638 -0.399821
519 1 0.864742 0.590343 0.5 0.431161 0.534946
520 1 0.971394 0.0125366 0.5 -0.0937075 0.232745
521 1 0.654991 0.382532 0.5 -0.511295 -0.238026
522 1 0.013677 0.968375 0.5 -0.27741 -0.562454
523 1 0.345505 0.286352 0.5 0.00577329 0.230915
524 1 0.866542 0.847411 0.5 -0.411391 -0.305278
525 1 0.920936 0.241364 0.5 -0.161649 -0.0493771
526 1 0.834628 0.58849 0.5 0.413266 -0.356935
527 1 0.758207 0.154607 0.5 -0.0901741 0.588747
528 1 0.140875 0.834509 0.5 0.0244245 -0.886934
529 1 0.607252 0.674426 0.5 -0.218444 -0.545471
530 1 0.989911 0.889253 0.5 0.359001 0.432245
531 1 0.269683 0.83792 0.5 -0.610692 0.376468
532 1 0.131854 0.568751 0.5 -0.528688 -0.604774
533 1 0.746385 0.0956484 0.5 -0.253147 0.324226
534 1 0.108765 0.86497 0.5 0.211407 0.0895429
535 1 0.513323 0.987612 0.5 0.0388588 -0.445723
536 1 0.185694 0.0711488 0.5 -0.0564145 0.139019
537 1 0.342264 0.670433 0.5 -0.163914 -0.35811
538 1 0.800057 0.440121 0.5 -0.108619 0.360904
539 1 0.704245 0.309254 0.5 -0.501868 0.556977
540 1 0.772018 0.23686 0.5 -0.112609 0.836814
541 1 0.224557 0.669823 0.5 -0.588159 0.420098
542 1 0.0451343 0.274028 0.5 -0.0500105 -0.265033
543 1 0.682714 0.113357 0.5 -0.203297 0.068389
544 1 0.657243 0.200405 0.5 -0.512654 0.655264
545 1 0.855784 0.172058 0.5 0.356832 -0.266294
546 1 0.0856813 0.181868 0.5 0.26389 0.26268
547 1 0.131809 0.149433 0.5 -0.228986 -0.373376
548 1 0.0920521 0.308507 0.5 -0.249949 0.795498
549 1 0.412727 0.276475 0.5 0.688257 0.349271
550 1 0.546469 0.70881 0.5 0.663354 -0.182358
551 1 0.179122 0.370904 0.5 0.3479 0.711889
552 1 0.0111597 0.115735 0.5 -0.721573 0.187298
553 1 0.108303 0.82839 0.5 0.310933 -0.279973
554 1 0.0761189 0.0160326 0.5 -0.722112 0.469375
555 1 0.527265 0.032273 0.5 -0.421659 -0.21635
556 1 0.991457 0.532835 0.5 -0.702341 -0.209905
557 1 0.166285 0.0888416 0.5 0 0
558 1 0.297469 0.589504 0.5 0.00448775 -0.125467
559 1 0.972524 0.452911 0.5 0.44877 -0.195353
560 1 0.651723 0.521734 0.5 0.595238 0.272127
561 1 0.679437 0.765486 0.5 -0.225811 -0.182397
562 1 0.863974 0.698354 0.5 -0.185569 0.00287326
563 1 0.00365564 0.220587 0.5 -0.326793 -0.618718
564 1 0.205663 0.238675 0.5 0.654685 -0.313128
565 1 0.965191 0.126592 0.5 -0.207955 0.631497
566 1 0.470013 0.0953045 0.5 0.0281268 0.767088
567 1 0.182757 0.257983 0.5 0.36585 0.46826
568 1 0.422914 0.530582 0.5 -0.447689 -0.2263
569 1 0.168339 0.876109 0.5 0.416944 -0.60714
570 1 0.562485 0.66329 0.5 0.331034 -0.425334
571 1 0.120262 0.166925 0.5 -0.394461 -0.679846
572 1 0.439496 0.692331 0.5 -0.279169 0.536453
573 1 0.528716 0.0153431 0.5 0.0325394 -0.30941
574 1 0.100472 0.481121 0.5 0 0
575 1 0.170579 0.0419667 0.5 -0.131009 -0.529059
576 1 0.6882 0.273229 0.5 0.0994408 -0.575434
577 1 0.145305 0.851141 0.5 0.277202 -0.158986
578 1 0.985315 0.563996 0.5 -0.119188 0.0134426
579 1 0.00328541 0.0745716 0.5 -0.86969 0.0110556
580 1 0.48053 0.00308576 0.5 -0.257073 0.269887
581 1 0.701803 0.910314 0.5 -0.265505 0.757201
582 1 0.742426 0.701689 0.5 0.222364 0.414986
583 1 0.108961 0.13035 0.5 -0.432079 -0.0451817
584 1 0.232504 0.807071 0.5 -0.132321 -0.375342
585 1 0.95472 0.524988 0.5 -0.392902 -0.799766
586 1 0.735057 0.129995 0.5 -0.163114 0.390537
587 1 0.185892 0.469379 0.5 -0.157543 0.311977
588 1 0.401223 0.333563 0.5 -0.343422 0.641745
589 1 0.812422 0.376877 0.5 0.059271 0.129723
590 1 0.808479 0.853994 0.5 0 0
591 1 0.442125 0.702057 0.5 0.107023 0.944911
592 1 0.520813 0.173974 0.5 -0.0977323 -0.573983
593 1 0.700526 0.101773 0.5 -0.120758 0.334003
594 1 0.996501 0.937685 0.5 0.0249691 -0.076019
595 1 0.0707068 0.256675 0.5 -0.132039 0.223993
596 1 0.0838581 0.248811 0.5 0.810217 0.0326042
597 1 0.912136 0.194571 0.5 -0.527524 -0.475621
598 1 0.589236 0.317084 0.5 -0.0473119 0.149687
599 1 0.467683 0.44327 0.5 0 0
600 1 0.564526 0.0262626 0.5 -0.381522 0.267325
601 1 0.355099 0.520716 0.5 -0.470147 0.503502
602 1 0.0121571 0.996457 0.5 0.390182 0.0328101
603 1 0.504356 0.60087 0.5 -0.564582 -0.0974096
604 1 0.609343 0.76555 0.5 -0.449482 0.0979548
605 1 0.357412 0.990359 0.5 0.203784 -0.325552
606 1 0.707574 0.789256 0.5 -0.0263086 -0.385
607 1 0.846281 0.819739 0.5 -0.00224314 0.744383
608 1 0.830523 0.109893 0.5 -0.863958 0.198978
609 1 0.603836 0.968208 0.5 0.329539 0.0613418
610 1 0.056707 0.123062 0.5 -0.589107 -0.119243
611 1 0.557641 0.336005 0.5 -0.569839 0.441786
612 1 0.0935171 0.458955 0.5 -0.180732 0.294919
613 1 0.633164 0.81504 0.5 -0.351021 0.72124
614 1 0.521876 0.290586 0.5 -0.341353 0.435785
615 1 0.175195 0.795604 0.5 0.320126 -0.215394
616 1 0.813835 0.701872 0.5 0.267675 0.388938
617 1 0.682648 0.386875 0.5 -0.460873 -0.135326
618 1 0.2852 0.860043 0.5 -0.207268 0.553583
619 1 0.573096 0.194569 0.5 -0.0451661 -0.128572
620 1 0.767139 0.27412 0.5 -0.613863 -0.590775
621 1 0.0301542 0.533047 0.5 0.139618 0.164756
622 1 0.671684 0.642156 0.5 0.0353934 0.439372
623 1 0.270578 0.645864 0.5 0.567568 -0.261476
624 1 0.341152 0.155471 0.5 -0.097724 0.901155
625 1 0.792419 0.0621031 0.5 -0.728699 -0.206471
626 1 0.259597 0.448665 0.5 0.00318851 -0.516453
627 1 0.944847 0.407979 0.5 -0.810631 -0.157947
628 1 0.636253 0.678498 0.5 0.0818899 0.335654
629 1 0.294938 0.910287 0.5 0.0135856 -0.0121314
630 1 0.00362031 0.808201 0.5 -0.715197 -0.0482102
631 1 0.221178 0.853311 0.5 -0.236155 0.022648
632 1 0.246771 0.206027 0.5 0.254955 0.154866
633 1 0.786103 0.467134 0.5 -0.409424 0.404253
634 1 0.350895 0.306397 0.5 -0.301078 -0.218269