ITEM: TIMESTEP
0
ITEM: NUMBER OF ATOMS
9250
ITEM: BOX BOUNDS pp pp pp
-5.8359999999999999e+01 5.8359999999999999e+01
-5.8359999999999999e+01 5.8359999999999999e+01
-5.0000000000000000e-01 5.0000000000000000e-01
ITEM: ATOMS id type xs ys zs c_002[1] c_002[2]
1 1 0.769457 0.835332 0.5 -0.270411 -0.310901
2 1 0.786406 0.751067 0.5 -0.648238 -0.00255492
3 1 0.968922 0.204606 0.5 0.631421 -0.130735
4 1 0.651984 0.843143 0.5 -0.559389 0.57761
5 1 0.095903 0.399313 0.5 -0.260695 0.126818
6 1 0.765976 0.277439 0.5 0.0624941 0.268224
7 1 0.685958 0.0606467 0.5 0.206548 0.0376792
8 1 0.673114 0.478975 0.5 0.0927832 0.660573
9 1 0.161732 0.959311 0.5 0.259079 0.195774
10 1 0.886233 0.697368 0.5 -0.569363 -0.507175
11 1 0.253353 0.331125 0.5 -0.363919 -0.258376
12 1 0.247053 0.227394 0.5 0.349557 0.386563
13 1 0.878476 0.95897 0.5 -0.234792 0.0901726
14 1 0.872943 0.314659 0.5 0.291201 0.351011
15 1 0.886965 0.900731 0.5 0.237484 -0.522522
16 1 0.992229 0.648361 0.5 -0.446494 0.0473064
17 1 0.783813 0.698774 0.5 -0.530018 -0.268684
18 1 0.929077 0.128218 0.5 0.516286 0.405111
19 1 0.943919 0.439113 0.5 0.611383 -0.00635021
20 1 0.535422 0.440352 0.5 0 0
21 1 0.743755 0.34137 0.5 0.0473932 -0.19483
22 1 0.277825 0.235549 0.5 0.160477 -0.869848
23 1 0.56659 0.00882782 0.5 -0.204159 -0.0722421
24 1 0.931534 0.923933 0.5 0.427129 0.539205
25 1 0.999192 0.972223 0.5 0.469066 -0.644709
26 1 0.384254 0.0762778 0.5 0.739323 -0.358452
27 1 0.734268 0.712654 0.5 0 0
28 1 0.127206 0.373975 0.5 0.0659747 0.612119
29 1 0.898673 0.921313 0.5 0.490839 0.641417
30 1 0.702168 0.00861978 0.5 -0.839598 -0.175803
31 1 0.432688 0.10556 0.5 -0.33954 -0.745721
32 1 0.842021 0.524576 0.5 0.237911 -0.308281
33 1 0.438403 0.199889 0.5 0.816935 0.397301
34 1 0.350361 0.141532 0.5 0.480168 -0.291938
35 1 0.741422 0.588707 0.5 -0.315572 0.129565
36 1 0.749829 0.85462 0.5 -0.042808 -0.14999
37 1 0.76766 0.17438 0.5 -0.290116 -0.0724623
38 1 0.768392 0.846408 0.5 -0.473982 0.0834486
39 1 0.0960989 0.699861 0.5 0.367618 -0.382653
40 1 0.872692 0.562164 0.5 0.00826335 0.148052
41 1 0.632631 0.187739 0.5 0.666809 0.0177363
42 1 0.0892446 0.804259 0.5 -0.0926877 0.492773
43 1 0.164439 0.547628 0.5 -0.74866 0.513462
44 1 0.716229 0.456544 0.5 0.0504544 -0.374068
45 1 0.596562 0.129709 0.5 0.659646 -0.220193
46 1 0.0475491 0.226717 0.5 0.0315963 0.0274279
47 1 0.85738 0.687924 0.5 -0.0776942 -0.612621
48 1 0.604935 0.195737 0.5 0.541373 0.170381
49 1 0.0105968 0.375046 0.5 0.717649 0.560308
50 1 0.875794 0.81011 0.5 0.205149 0.47271
51 1 0.339489 0.36457 0.5 -0.632223 -0.320893
52 1 0.914611 0.861348 0.5 -0.492881 0.487225
53 1 0.684959 0.00710542 0.5 -0.848493 -0.368692
54 1 0.699602 0.60307 0.5 -0.136062 0.0877527
55 1 0.852051 0.708496 0.5 -0.212363 -0.841446
56 1 0.0156623 0.0256013 0.5 0.186052 0.467667
57 1 0.722256 0.346189 0.5 -0.889172 -0.412285
58 1 0.863593 0.334583 0.5 0.106167 -0.102821
59 1 0.863938 0.519882 0.5 0.170744 0.108391
60 1 0.192511 0.43983 0.5 -0.0630159 -0.24182
61 1 0.731337 0.411117 0.5 -0.222939 -0.378034
62 1 0.547363 0.309792 0.5 -0.088086 0.934763
63 1 0.926359 0.371878 0.5 -0.113484 0.00929899
64 1 0.420064 0.463832 0.5 0.699866 -0.572763
65 1 0.598793 0.373581 0.5 -0.00259277 0.152127
66 1 0.957258 0.398638 0.5 -0.452563 -0.634225
67 1 0.298496 0.157894 0.5 -0.778158 0.444191
68 1 0.367869 0.429496 0.5 -0.0303488 0.767879
69 1 0.780846 0.617116 0.5 0.84697 0.208921
70 1 0.807586 0.0255412 0.5 0.406938 -0.260253
71 1 0.0668852 0.625212 0.5 -0.20008 -0.305666
72 1 0.826921 0.659712 0.5 0.427371 0.324062
73 1 0.0762543 0.866761 0.5 0.483686 -0.0953806
74 1 0.488 0.954693 0.5 -0.396384 -0.131829
75 1 0.717192 0.73834 0.5 0.692259 -0.181151
76 1 0.64891 0.553433 0.5 0.0846735 0.50944
77 1 0.908766 0.371991 0.5 -0.884536 0.0834052
78 1 0.445006 0.409977 0.5 -0.364249 -0.71699
79 1 0.507452 0.073288 0.5 -0.0295233 -0.0277588
80 1 0.720893 0.939433 0.5 0.0386184 0.67085
81 1 0.16504 0.390675 0.5 -0.109296 -0.135751
82 1 0.619614 0.486881 0.5 0.0451875 -0.0747802
83 1 0.902191 0.41463 0.5 -0.0067063 -0.538198
84 1 0.421106 0.482233 0.5 0.931905 0.00545905
85 1 0.980605 0.538195 0.5 0.316187 0.24104
86 1 0.856586 0.284206 0.5 -0.217543 0.421642
87 1 0.632047 0.384017 0.5 0.0497144 0.554064
88 1 0.0322243 0.654446 0.5 0.270814 -0.524067
89 1 0.648026 0.227906 0.5 -0.495243 0.518284
90 1 0.287422 0.726989 0.5 -0.419085 0.635513
91 1 0.168308 0.588267 0.5 -0.782391 0.252324
92 1 0.0799431 0.387159 0.5 -0.6086 -0.322938
93 1 0.814577 0.204651 0.5 -0.681669 -0.0619111
94 1 0.677256 0.820635 0.5 -0.0184827 0.82991
95 1 0.383666 0.825657 0.5 -0.297182 0.77117
96 1 0.237946 0.41091 0.5 0.121725 -0.0593804
97 1 0.774539 0.142365 0.5 0.171091 -0.0909611
98 1 0.843011 0.0662699 0.5 0.487077 0.149149
99 1 0.0267429 0.933249 0.5 -0.29247 0.374789
100 1 0.792536 0.572658 0.5 -0.0257444 -0.490827
101 1 0.595045 0.483236 0.5 0.0563088 -0.450498
102 1 0.25759 0.652028 0.5 -0.146124 -0.306162
103 1 0.207084 0.584783 0.5 0.0839101 0.424972
104 1 0.682789 0.615281 0.5 0.0383243 -0.544588
105 1 0.351594 0.960769 0.5 -0.0621008 0.0050374
106 1 0.625041 0.349906 0.5 -0.249079 -0.401405
107 1 0.798671 0.523429 0.5 -0.120217 -0.0290897
108 1 0.756616 0.347403 0.5 -0.0550458 0.0561274
109 1 0.624733 0.60428 0.5 0.115355 -0.0561176
110 1 0.853787 0.456777 0.5 -0.0998216 -0.240218
111 1 0.285483 0.434792 0.5 -0.285613 -0.338343
112 1 0.89554 0.59819 0.5 0.805997 -0.0182635
113 1 0.432639 0.734471 0.5 -0.289109 0.262847
114 1 0.715012 0.641097 0.5 0.60479 0.0252319
115 1 0.987477 0.831478 0.5 -0.487872 0.281637
116 1 0.0222495 0.143013 0.5 0 0
117 1 0.896483 0.290397 0.5 0.690144 0.325485
118 1 0.738667 0.143236 0.5 0.494335 0.44169
119 1 0.597222 0.452836 0.5 0.685493 -0.31876
120 1 0.756952 0.636774 0.5 -0.189085 -0.316519
121 1 0.848467 0.618826 0.5 0.595128 0.146327
122 1 0.642031 0.738764 0.5 0.199589 0.175054
123 1 0.0486848 0.462901 0.5 -0.0228341 0.944771
124 1 0.882377 0.779683 0.5 0.305595 0.0578306
125 1 0.394838 0.0542249 0.5 0.219606 -0.0118388
126 1 0.92553 0.529305 0.5 -0.20851 -0.692054
127 1 0.887144 0.164499 0.5 -0.455899 -0.327351
128 1 0.472409 0.730926 0.5 -0.0738483 -0.7643
129 1 0.581994 0.251269 0.5 -0.253451 -0.475024
130 1 0.0154088 0.483055 0.5 0.714444 0.581626
131 1 0.900136 0.607129 0.5 0.411289 -0.257019
132 1 0.906623 0.0470116 0.5 -0.0710364 -0.277582
133 1 0.852968 0.490744 0.5 -0.37285 0.337993
134 1 0.345901 0.261999 0.5 -0.521768 0.225948
135 1 0.97129 0.991909 0.5 -0.10379 0.298981
136 1 0.969761 0.39508 0.5 0.498952 0.0836874
137 1 0.503248 0.848929 0.5 -0.226239 0.387012
138 1 0.914086 0.683133 0.5 -0.369064 -0.464295
139 1 0.613065 0.291717 0.5 -0.206114 0.451523
140 1 0.0623005 0.535603 0.5 -0.302581 -0.678791
141 1 0.0222472 0.646328 0.5 -0.118682 -0.455047
142 1 0.219603 0.764454 0.5 0.0683892 -0.324428
143 1 0.768563 0.345717 0.5 0.472923 -0.155776
144 1 0.217257 0.50231 0.5 -0.025767 -0.450566
145 1 0.74787 0.350937 0.5 -0.288839 -0.249223
146 1 0.65145 0.211007 0.5 0.192898 -0.120298
147 1 0.807833 0.176885 0.5 -0.218176 -0.00906861
148 1 0.804659 0.324624 0.5 0.56735 -0.149305
149 1 0.726119 0.524407 0.5 -0.289358 -0.253052
150 1 0.866911 0.830635 0.5 -0.275298 -0.19258
151 1 0.700876 0.128958 0.5 0.286677 -0.104121
152 1 0.0195391 0.345381 0.5 0.371855 0.0324719
153 1 0.989833 0.610928 0.5 -0.259935 0.035062
154 1 0.912593 0.738311 0.5 -0.113154 -0.250629
155 1 0.891433 0.661808 0.5 -0.225562 -0.161139
156 1 0.481949 0.224002 0.5 -0.155518 -0.54631
157 1 0.709116 0.0921755 0.5 0.148796 0.0707503
158 1 0.947428 0.56429 0.5 -0.133017 0.597116
159 1 0.248697 0.289154 0.5 0.263945 0.359069
160 1 0.660086 0.397311 0.5 -0.113251 0.685247
161 1 0.802189 0.672323 0.5 -0.116008 0.613574
162 1 0.4668 0.433417 0.5 -0.20548 0.230424
163 1 0.408604 0.158973 0.5 -0.77111 -0.229992
164 1 0.547398 0.349336 0.5 -0.152823 0.368727
165 1 0.810225 0.487876 0.5 -0.855384 -0.192808
166 1 0.791739 0.617978 0.5 0.356142 -0.338299
167 1 0.49777 0.0992437 0.5 -0.638854 0.684478
168 1 0.227595 0.00463478 0.5 -0.431311 -0.745102
169 1 0.991074 0.294043 0.5 -0.336561 0.297137
170 1 0.77938 0.919083 0.5 -0.657954 -0.539103
171 1 0.38743 0.0375388 0.5 -0.787697 0.288502
172 1 0.0695209 0.431966 0.5 -0.892814 0.158434
173 1 0.602228 0.634251 0.5 -0.655923 -0.172688
174 1 0.69087 0.646849 0.5 -0.423054 -0.387219
175 1 0.621156 0.527909 0.5 0.466299 0.337945
176 1 0.31899 0.945027 0.5 -0.928324 -0.037405
177 1 0.301035 0.969155 0.5 0.373282 -0.449887
178 1 0.672415 0.625692 0.5 0.774391 0.317739
179 1 0.323977 0.504681 0.5 -0.270664 0.150875
180 1 0.609135 0.469656 0.5 0.298653 -0.774033
181 1 0.82283 0.198504 0.5 -0.83913 0.0702883
182 1 0.149677 0.754802 0.5 -0.0640967 -0.156779
183 1 0.262978 0.325656 0.5 -0.00464236 0.110909
184 1 0.911953 0.243931 0.5 -0.360436 -0.615861
185 1 0.487288 0.322271 0.5 0.765939 -0.239227
186 1 0.696281 0.713935 0.5 0.314131 0.107348
187 1 0.547602 0.848395 0.5 0.0170544 -0.299449
188 1 0.211392 0.944857 0.5 0.402018 -0.327653
189 1 0.851209 0.313631 0.5 -0.0206661 -0.13082
190 1 0.707718 0.757742 0.5 -0.000508603 -0.647565
191 1 0.610921 0.630418 0.5 -0.758025 -0.555646
192 1 0.964758 0.579948 0.5 -0.235645 0.211972
193 1 0.73826 0.366564 0.5 -0.949141 0.0618699
194 1 0.968296 0.970211 0.5 -0.0341753 -0.810019
195 1 0.560322 0.143461 0.5 0.0949722 -0.920876
196 1 0.172995 0.361256 0.5 -0.343071 0.530844
197 1 0.848937 0.852338 0.5 0.10783 -0.325175
198 1 0.933259 0.607876 0.5 -0.353257 -0.0119134
199 1 0.76369 0.708214 0.5 0 0
200 1 0.825286 0.857497 0.5 -0.304881 -0.329911
201 1 0.148892 0.71831 0.5 -0.0947219 -0.651923
202 1 0.781405 0.345424 0.5 0.587258 0.422425
203 1 0.554192 0.213785 0.5 0.471499 0.638892
204 1 0.860628 0.905071 0.5 0.888298 -0.13361
205 1 0.485987 0.340753 0.5 0.411157 0.0288556
206 1 0.138473 0.574823 0.5 -0.23146 -0.395015
207 1 0.755947 0.560278 0.5 -0.606016 -0.00603266
208 1 0.681025 0.0716219 0.5 -0.0341922 -0.622414
209 1 0.80383 0.387351 0.5 -0.840507 -0.0997756
210 1 0.264696 0.0416065 0.5 -0.740035 -0.395983
211 1 0.94556 0.332865 0.5 0.314779 0.00582364
212 1 0.751126 0.272571 0.5 0.000969114 0.260049
213 1 0.702391 0.868882 0.5 0.101875 -0.17671
214 1 0.0276649 0.763489 0.5 -0.339508 0.081948
215 1 0.410896 0.435425 0.5 0.21868 -0.325906
216 1 0.661157 0.145312 0.5 0.117905 0.412056
217 1 0.138428 0.248605 0.5 0.30814 0.338334
218 1 0.82382 0.546848 0.5 0.0208571 -0.456532
219 1 0.355072 0.667228 0.5 0.62384 0.218401
220 1 0.756298 0.0930261 0.5 -0.408154 -0.33368
221 1 0.783969 0.319015 0.5 -0.513463 -0.66947
222 1 0.476069 0.307246 0.5 -0.654216 -0.4961
223 1 0.33177 0.385096 0.5 0.699432 0.122945
224 1 0.700605 0.75038 0.5 -0.166976 -0.319467
225 1 0.0575807 0.629494 0.5 -0.487731 0.00782188
226 1 0.946745 0.390634 0.5 -0.690776 -0.360959
227 1 0.0238399 0.590649 0.5 0.0696146 0.188976
228 1 0.780712 0.584846 0.5 -0.168844 -0.70975
229 1 0.658026 0.370834 0.5 -0.649839 -0.423535
230 1 0.117161 0.934093 0.5 0.311709 -0.0373444
231 1 0.811759 0.703036 0.5 0.277466 -0.277628
232 1 0.696591 0.849245 0.5 -0.159431 -0.741888
233 1 0.712917 0.545386 0.5 -0.0448303 0.819558
234 1 0.817465 0.504502 0.5 -0.308406 -0.858798
235 1 0.259526 0.227034 0.5 0.840331 -0.395105
236 1 0.368583 0.650261 0.5 0.0878066 0.0769494
237 1 0.186968 0.825759 0.5 -0.169985 -0.233437
238 1 0.876117 0.687404 0.5 -0.199646 -0.514006
239 1 0.882628 0.174179 0.5 0.49603 0.00274652
240 1 0.892814 0.520259 0.5 -0.355223 0.527853
241 1 0.142481 0.173777 0.5 -0.706823 -0.186945
242 1 0.71055 0.632802 0.5 0.339023 0.660482
243 1 0.173857 0.606843 0.5 0.787979 -0.317951
244 1 0.706363 0.479565 0.5 0.80647 -0.0928864
245 1 0.954578 0.823423 0.5 0.171405 -0.687744
246 1 0.676947 0.35208 0.5 0.60007 0.175225
247 1 0.607099 0.338697 0.5 0.417562 -0.254656
248 1 0.273313 0.683751 0.5 0.107528 -0.701388
249 1 0.4426 0.885125 0.5 0.0925455 -0.0456702
250 1 0.317507 0.46557 0.5 0.748015 0.212526
251 1 0.626659 0.336935 0.5 -0.11631 -0.488871
252 1 0.254791 0.471821 0.5 0.140758 -0.396645
253 1 0.447738 0.333097 0.5 -0.0721563 -0.431328
254 1 0.472716 0.241144 0.5 0.191503 0.114963
255 1 0.868636 0.736053 0.5 -0.585851 -0.145581
256 1 0.86284 0.760488 0.5 -0.092919 0.569349
257 1 0.960705 0.496897 0.5 -0.817396 0.531518
258 1 0.658179 0.360847 0.5 -0.630973 0.488337
259 1 0.947856 0.787307 0.5 0.322091 0.122849
260 1 0.526871 0.198281 0.5 -0.441882 0.141899
261 1 0.547514 0.0736794 0.5 -0.778566 -0.51205
262 1 0.668273 0.218457 0.5 -0.0739213 -0.260082
263 1 0.321717 0.0645728 0.5 0.188135 -0.409609
264 1 0.42052 0.18607 0.5 -0.581604 -0.10411
265 1 0.358595 0.203387 0.5 0.28252 -0.174386
266 1 0.579821 0.716398 0.5 5.24306e-05 0.180945
267 1 0.729491 0.198882 0.5 0.484223 -0.699639
268 1 0.808473 0.0774209 0.5 0.182184 0.749522
269 1 0.185512 0.122787 0.5 -0.183531 -0.520685
270 1 0.705465 0.101139 0.5 0.13867 0.26638
271 1 0.408003 0.816208 0.5 -0.399445 0.451866
272 1 0.972349 0.00342258 0.5 -0.0249347 0.658626
273 1 0.990905 0.992589 0.5 0.366257 -0.362756
274 1 0.685037 0.440491 0.5 -0.653069 0.200492
275 1 0.498287 0.765579 0.5 -0.534248 0.271442
276 1 0.922009 0.790994 0.5 -0.259575 0.43821
277 1 0.01897 0.726181 0.5 -0.064063 -0.195707
278 1 0.734354 0.509446 0.5 -0.869206 -0.0259063
279 1 0.72206 0.35563 0.5 -0.832667 -0.340408
280 1 0.573091 0.217497 0.5 0.419765 0.809556
281 1 0.0986842 0.777011 0.5 0.776206 -0.327444
282 1 0.249052 0.489791 0.5 0.371492 -0.291312
283 1 0.758146 0.828955 0.5 -0.370454 0.213249
284 1 0.870628 0.106313 0.5 -0.103919 0.239028
285 1 0.37506 0.657076 0.5 0.596291 -0.233008
286 1 0.488946 0.293722 0.5 -0.235254 -0.611903
287 1 0.17407 0.5069 0.5 -0.33864 0.0752452
288 1 0.747056 0.64996 0.5 -0.674443 -0.0255569
289 1 0.0408008 0.0388742 0.5 0.522086 0.318725
290 1 0.859576 0.00319029 0.5 0.252257 0.504976
291 1 0.627167 0.694464 0.5 0.285709 0.13873
292 1 0.72502 0.572115 0.5 -0.318044 -0.438006
293 1 0.382518 0.816206 0.5 0.0643434 0.747214
294 1 0.950449 0.695554 0.5 0.925389 0.25067
295 1 0.610218 0.640276 0.5 -0.124899 -0.0859982
296 1 0.72954 0.640767 0.5 -0.0157116 -0.0142784
297 1 0.610636 0.716647 0.5 -0.604056 -0.246998
298 1 0.980354 0.0929742 0.5 0.471128 -0.536821
299 1 0.703208 0.517352 0.5 0.0180868 0.148
300 1 0.317986 0.648761 0.5 -0.237363 -0.0745832
301 1 0.968729 0.7023 0.5 0.403912 -0.602154
302 1 0.73995 0.242181 0.5 -0.179142 -0.416924
303 1 0.278617 0.171674 0.5 0.342214 -0.181088
304 1 0.943968 0.716077 0.5 0.128878 0.0544683
305 1 0.254435 0.0886478 0.5 -0.564981 0.297216
306 1 0.59475 0.961429 0.5 -0.647299 0.31801
307 1 0.718385 0.252236 0.5 -0.485436 0.17381
308 1 0.596349 0.0141193 0.5 0.051301 0.637324
309 1 0.201472 0.974691 0.5 0.513438 -0.733613
310 1 0.275971 0.625472 0.5 -0.77988 -0.305452
311 1 0.638016 0.225153 0.5 -0.527294 0.741072
312 1 0.652302 0.759071 0.5 0.160164 -0.289873
313 1 0.15454 0.727603 0.5 0.214867 -0.213103
314 1 0.993279 0.0381149 0.5 0.446096 -0.27423
315 1 0.742209 0.862232 0.5 -0.323965 0.645924
316 1 0.670398 0.945555 0.5 -0.387923 -0.227667
317 1 0.262526 0.827917 0.5 -0.0744859 -0.934705
318 1 0.914604 0.88498 0.5 0 0
319 1 0.877525 0.533397 0.5 -0.691591 0.0349987
320 1 0.316631 0.695166 0.5 -0.689027 -0.561359
321 1 0.0405727 0.303998 0.5 0.0699042 -0.680505
322 1 0.857185 0.580687 0.5 0.128566 0.57019
323 1 0.474376 0.344293 0.5 -0.231991 -0.317166
324 1 0.64428 0.747946 0.5 0.1788 0.311684
325 1 0.689044 0.840275 0.5 0.522269 -0.59442
326 1 0.424172 0.640373 0.5 0.157483 0.660582
327 1 0.608018 0.165168 0.5 0.482882 0.259988
328 1 0.544537 0.129602 0.5 -0.297625 -0.329888
329 1 0.323461 0.586872 0.5 -0.11604 0.684263
330 1 0.906623 0.635149 0.5 -0.123161 0.452928
331 1 0.543626 0.740156 0.5 0.315993 0.675289
332 1 0.897233 0.180116 0.5 0.674853 -0.236861
333 1 0.732481 0.812963 0.5 0.146492 0.0424108
334 1 0.203702 0.553273 0.5 -0.0102882 -0.107029
335 1 0.133912 0.814849 0.5 -0.132176 0.421345
336 1 0.680715 0.888274 0.5 0.550951 0.0556754
337 1 0.0678663 0.120862 0.5 -0.580423 -0.149905
338 1 0.215299 0.411306 0.5 0.245833 -0.0598368
339 1 0.879626 0.607841 0.5 0.844443 0.260641
340 1 0.729868 0.6253 0.5 0.161375 0.523044
341 1 0.563202 0.936634 0.5 0.403514 -0.169893
342 1 0.535832 0.182502 0.5 -0.125687 0.264496
343 1 0.9463 0.183683 0.5 0.879622 -0.0685331
344 1 0.21201 0.719943 0.5 0.111964 -0.421576
345 1 0.316386 0.594441 0.5 -0.338527 0.552075
346 1 0.814683 0.431447 0.5 -0.283366 0.0827174
347 1 0.798624 0.445283 0.5 0.609808 0.570578
348 1 0.113133 0.532267 0.5 0 0
349 1 0.0116151 0.716069 0.5 0.347181 -0.294363
350 1 0.622328 0.590247 0.5 -0.242179 0.185488
351 1 0.477804 0.0756903 0.5 -0.794867 -0.0378994
352 1 0.955302 0.0795847 0.5 0.201055 -0.355228
353 1 0.110902 0.622551 0.5 -0.503112 -0.243112
354 1 0.864017 0.599407 0.5 0.539101 0.379559
355 1 0.584872 0.635162 0.5 -0.568877 0.282374
356 1 0.0758677 0.792258 0.5 0.835988 -0.260798
357 1 0.141306 0.469008 0.5 0.485441 0.713017
358 1 0.457682 0.706474 0.5 -0.306855 -0.493653
359 1 0.544589 0.604207 0.5 0.100291 0.964716
360 1 0.213203 0.0826612 0.5 0.00556658 -0.479653
361 1 0.894469 0.23232 0.5 0.26435 -0.0673537
362 1 0.436892 0.711891 0.5 -0.0276936 -0.455751
363 1 0.647553 0.285128 0.5 -0.0279404 -0.319039
364 1 0.867868 0.0390762 0.5 0.628979 -0.0764436
365 1 0.20418 0.236252 0.5 0.372634 0.266454
366 1 0.942282 0.0933936 0.5 0.430763 -0.454877
367 1 0.957432 0.981214 0.5 0.319235 0.679489
368 1 0.131701 0.729707 0.5 -0.602298 0.157991
369 1 0.603508 0.348169 0.5 -0.298452 -0.533297
370 1 0.941436 0.746017 0.5 -0.282624 0.0496884
371 1 0.847525 0.300168 0.5 0.275417 0.490722
372 1 0.378919 0.0248959 0.5 0.143167 -0.482642
373 1 0.431952 0.834832 0.5 -0.642131 -0.244304
374 1 0.727739 0.764237 0.5 0.252209 -0.304518
375 1 0.737087 0.468295 0.5 -0.471987 -0.600053
376 1 0.440881 0.573721 0.5 0.284503 -0.519606
377 1 0.528131 0.287952 0.5 0.740058 0.431728
378 1 0.770863 0.856102 0.5 -0.555874 0.289962
379 1 0.329184 0.4179 0.5 -0.237683 -0.319495
380 1 0.911183 0.572913 0.5 0.397419 -0.0765582
381 1 0.328894 0.904115 0.5 0.142037 0.180681
382 1 0.968563 0.896998 0.5 0.290867 0.241881
383 1 0.468522 0.805719 0.5 0.143953 0.174118
384 1 0.133854 0.354953 0.5 -0.251629 0.651942
385 1 0.556779 0.539693 0.5 0 0
386 1 0.936581 0.51545 0.5 -0.639103 -0.17355
387 1 0.801622 0.483422 0.5 -0.365167 -0.260745
388 1 0.837852 0.80015 0.5 0.600431 0.624181
389 1 0.718006 0.769468 0.5 0.126419 0.0511323
390 1 0.793703 0.358475 0.5 -0.520054 0.705055
391 1 0.720135 0.16921 0.5 0.214954 -0.400102
392 1 0.924272 0.714639 0.5 0.667369 -0.281627
393 1 0.147536 0.643587 0.5 -0.274486 -0.319438
394 1 0.064428 0.520687 0.5 0.07785 -0.132814
395 1 0.401375 0.196148 0.5 -0.751883 0.0692531
396 1 0.652906 0.565571 0.5 0.49174 -0.0310719
397 1 0.149176 0.671965 0.5 0.357104 -0.378367
398 1 0.0504474 0.500318 0.5 0.672575 0.345616
399 1 0.963008 0.516776 0.5 -0.563156 0.319335
400 1 0.449443 0.89194 0.5 -0.719503 -0.189653
401 1 0.84136 0.840762 0.5 -0.208012 0.0649437
402 1 0.10427 0.452966 0.5 0.011855 -0.402542
403 1 0.63157 0.440581 0.5 -0.352801 -0.148519
404 1 0.369175 0.857068 0.5 -0.137919 -0.50556
405 1 0.0177454 0.394151 0.5 0.473688 0.222931
406 1 0.449102 0.696922 0.5 -0.236907 -0.686901
407 1 0.369645 0.962378 0.5 0.0357402 0.406997
408 1 0.497971 0.722406 0.5 -0.150079 0.0717673
409 1 0.569139 0.662575 0.5 -0.287399 -0.45942
410 1 0.432869 0.773197 0.5 0.532679 0.515561
411 1 0.0180766 0.367207 0.5 0.586775 0.458283
412 1 0.362337 0.795782 0.5 0 0
413 1 0.309621 0.620912 0.5 0.277831 -0.201324
414 1 0.285148 0.809704 0.5 -0.164306 0.506948
415 1 0.586711 0.690878 0.5 -0.501957 0.0942454
416 1 0.0967998 0.79693 0.5 0.0645588 0.297475
417 1 0.612794 0.589141 0.5 0.371267 0.152145
418 1 0.890308 0.0721365 0.5 -0.925192 0.182308
419 1 0.0946462 0.598916 0.5 -0.737618 -0.454484
420 1 0.10624 0.412482 0.5 0.331672 0.0207558
421 1 0.0736828 0.504203 0.5 0.466207 0.243815
422 1 0.00481458 0.384064 0.5 0.685267 0.579338
423 1 0.465883 0.687626 0.5 -0.233289 0.529966
424 1 0.596003 0.986572 0.5 -0.2274 0.229534
425 1 0.788838 0.400693 0.5 0.307426 0.517593
426 1 0.563826 0.467521 0.5 0 0
427 1 0.0173414 0.571112 0.5 0.733106 0.383944
428 1 0.872831 0.513522 0.5 -0.163237 0.313638
429 1 0.78497 0.74115 0.5 -0.0685252 0.187189
430 1 0.0550156 0.446079 0.5 -0.395464 0.630713
431 1 0.755307 0.390422 0.5 0.0628337 0.12884
432 1 0.00281193 0.780292 0.5 -0.158026 0.744068
433 1 0.987202 0.601696 0.5 0.0280139 -0.0934706
434 1 0.81434 0.381223 0.5 -0.350683 -0.017595
435 1 0.0129121 0.357652 0.5 0.749336 0.220721
436 1 0.055972 0.598147 0.5 0 0
437 1 0.639655 0.377177 0.5 0.102148 0.365502
438 1 0.251777 0.30156 0.5 0.276916 0.777757
439 1 0.680813 0.744549 0.5 -0.314254 0.0816289
440 1 0.625875 0.40875 0.5 0.465286 0.474452
441 1 0.895708 0.632564 0.5 -0.567712 0.445893
442 1 0.870801 0.977194 0.5 -0.441922 0.602759
443 1 0.00482282 0.50202 0.5 0.47968 -0.53804
444 1 0.671733 0.642773 0.5 0.152176 0.258339
445 1 0.803918 0.398965 0.5 -0.255926 -0.492084
446 1 0.220565 0.803134 0.5 0.375821 -0.486727
447 1 0.105685 0.281933 0.5 -0.0339954 0.516567
448 1 0.304086 0.189479 0.5 0.327972 0.167939
449 1 0.885687 0.626505 0.5 -0.345972 0.63029
450 1 0.999793 0.641537 0.5 -0.27939 -0.14969
451 1 0.589424 0.207842 0.5 0.511628 -0.258909
452 1 0.601553 0.54959 0.5 0.396688 -0.592716
453 1 0.0917407 0.371572 0.5 0.480632 -0.307266
454 1 0.670654 0.858066 0.5 0.384411 -0.552537
455 1 0.249654 0.619147 0.5 0.585957 -0.203884
456 1 0.53782 0.991298 0.5 -0.306925 -0.0363983
457 1 0.0119125 0.403766 0.5 0.141517 0.469183
458 1 0.964595 0.651907 0.5 -0.585241 0.324827
459 1 0.66426 0.691442 0.5 0.675596 -0.472223
460 1 0.311618 0.665264 0.5 0.20959 0.214789
461 1 0.185806 0.634205 0.5 -0.0224255 -0.676591
462 1 0.826641 0.938296 0.5 -0.107193 0.253184
463 1 0.000655797 0.991156 0.5 0.53833 -0.0550926
464 1 0.640343 0.558233 0.5 -0.177029 -0.0270736
465 1 0.25945 0.695179 0.5 -0.102609 -0.467347
466 1 0.983764 0.984548 0.5 0.0700815 -0.640181
467 1 0.143315 0.278715 0.5 -0.412585 -0.188032
468 1 0.304114 0.360491 0.5 -0.633933 0.287683
469 1 0.716946 0.211253 0.5 0 0
470 1 0.481749 0.399646 0.5 0.0404912 0.214913
471 1 0.620996 0.400197 0.5 0.408655 -0.146582
472 1 0.942202 0.898951 0.5 0.266269 -0.214997
473 1 0.458171 0.582307 0.5 0.183414 -0.758259
474 1 0.792478 0.693475 0.5 0.0410334 -0.145367
475 1 0.478623 0.869516 0.5 0.285187 0.341635
476 1 0.760252 0.487589 0.5 0.641454 -0.200995
477 1 0.325266 0.531352 0.5 -0.243389 -0.90095
478 1 0.980069 0.516352 0.5 -0.24381 -0.254961
479 1 0.781349 0.524294 0.5 0.0031148 -0.214582
480 1 0.466986 0.664351 0.5 -0.332386 -0.519631
481 1 0.92115 0.292598 0.5 -0.205261 -0.405032
482 1 0.952505 0.194438 0.5 0.657192 -0.45317
483 1 0.734441 0.478739 0.5 -0.710975 -0.502356
484 1 0.496378 0.931224 0.5 -0.0787987 0.193926
485 1 0.802447 0.569155 0.5 -0.137888 -0.0958014
486 1 0.93287 0.460721 0.5 0.658218 -0.299723
487 1 0.623402 0.0575902 0.5 -0.449642 -0.750332
488 1 0.91811 0.648856 0.5 0.279696 0.663886
489 1 0.477527 0.777153 0.5 -0.19084 -0.179474
490 1 0.981485 0.411425 0.5 0.683235 -0.0640681
491 1 0.60256 0.578796 0.5 -0.281658 -0.121653
492 1 0.751739 0.706161 0.5 0.470558 0.425143
493 1 0.809198 0.979864 0.5 -0.153815 -0.756403
494 1 0.356296 0.269216 0.5 -0.64834 0.258347
495 1 0.940629 0.571705 0.5 0.306203 0.102622
496 1 0.992347 0.430592 0.5 0.654914 0.661745
497 1 0.127688 0.120779 0.5 0.126645 -0.716357
498 1 0.0305165 0.467023 0.5 -0.780835 0.3678
499 1 0.816438 0.694718 0.5 -0.145673 -0.325179
500 1 0.670769 0.576277 0.5 0.715389 0.643579
501 1 0.646879 0.784883 0.5 -0.351078 -0.216518
502 1 0.681042 0.830049 0.5 0.522172 0.194497
503 1 0.599824 0.29994 0.5 -0.582442 -0.101824
504 1 0.238492 0.000952837 0.5 0.0488956 -0.789823
505 1 0.82375 0.82897 0.5 -0.482259 0.0892596
506 1 0.136771 0.824653 0.5 -0.392803 0.627433
507 1 0.995636 0.568657 0.5 0.610467 -0.10805
508 1 0.612133 0.426344 0.5 -0.32546 0.507492
509 1 0.604924 0.612372 0.5 -0.777653 -0.156422
510 1 0.747756 0.39638 0.5 -0.568351 -0.300958
511 1 0.267773 0.577992 0.5 0.54261 -0.21963
512 1 0.660257 0.66125 0.5 0.00114901 0.197537
513 1 0.244575 0.812338 0.5 -0.587375 -0.0523142
514 1 0.225887 0.464231 0.5 0.675178 0.00175661
515 1 0.334955 0.737396 0.5 0.398143 -0.189109
516 1 0.964181 0.527967 0.5 -0.366439 -0.0129018
517 1 0.585668 0.88883 0.5 -0.638129 -0.461101
518 1 0.286823 0.362659 0.5 0.246345 0.831457
519 1 0.275841 0.558637 0.5 0.0475463 -0.552039
520 1 0.319577 0.748547 0.5 0.687562 -0.170133
521 1 0.316323 0.705573 0.5 -0.726835 -0.531009
522 1 0.750697 0.80891 0.5 -0.63024 0.131288
523 1 0.757464 0.782921 0.5 0.482763 0.736405
524 1 0.811117 0.665104 0.5 -0.662325 0.107499
525 1 0.78365 0.0553931 0.5 -0.828778 -0.244169
526 1 0.996189 0.735301 0.5 0.0957621 0.444116
527 1 0.373821 0.733952 0.5 0.812187 -0.140565
528 1 0.196339 0.607535 0.5 0 0
529 1 0.76297 0.412708 0.5 0.398801 0.743212
530 1 0.829592 0.52298 0.5 0.403599 0.457757
531 1 0.0876505 0.0181035 0.5 0.14558 -0.15847
532 1 0.6519 0.157947 0.5 -0.190045 -0.631579
533 1 0.579728 0.207891 0.5 0.699035 0.277478
534 1 0.449935 0.959012 0.5 -0.35503 0.39745
535 1 0.641233 0.997445 0.5 -0.302933 0.123088
536 1 0.30913 0.641878 0.5 -0.00676439 -0.0654056
537 1 0.096028 0.85071 0.5 -0.777251 -0.0194195
538 1 0.835525 0.469483 0.5 0.0733713 0.0604987
539 1 0.85261 0.982886 0.5 0.336628 0.854548
540 1 0.693095 0.830737 0.5 0.310804 -0.4873
541 1 0.811755 0.912612 0.5 0.161422 0.113814
542 1 0.145907 0.0714599 0.5 0.524007 -0.22505
543 1 0.978906 0.506033 0.5 -0.484662 0.0822228
544 1 0.949498 0.49197 0.5 -0.475425 0.0740474
545 1 0.704675 0.436895 0.5 -0.4726 0.418376
546 1 0.932513 0.861091 0.5 -0.610403 -0.187502
547 1 0.789667 0.855093 0.5 -0.137229 -0.0697426
548 1 0.121252 0.328088 0.5 -0.850701 0.114195
549 1 0.354102 0.613012 0.5 -0.780603 -0.0459812
550 1 0.510211 0.325218 0.5 0.524229 -0.00821966
551 1 0.473062 0.678454 0.5 -0.346738 0.332092
552 1 0.917412 0.491318 0.5 -0.580766 -0.549624
553 1 0.413536 0.626745 0.5 0.0737534 0.665132
554 1 0.487086 0.143257 0.5 -0.33606 0.732131
555 1 0.123017 0.475883 0.5 -0.707874 0.544013
556 1 0.421753 0.962979 0.5 -0.189924 0.688404
557 1 0.160958 0.935231 0.5 -0.114321 0.106362
558 1 0.802239 0.455257 0.5 0.588308 0.00534317
559 1 0.0338055 0.0868718 0.5 -0.675703 0.232868
560 1 0.00170096 0.403034 0.5 0.472183 0.548487
561 1 0.747416 0.0977541 0.5 -0.800588 -0.0208302
562 1 0.938001 0.219119 0.5 0.247404 -0.0939895
563 1 0.938362 0.345057 0.5 0.510268 -0.329618
564 1 0.179983 0.344295 0.5 0.638805 0.514388
565 1 0.550411 0.699762 0.5 -0.364409 -0.322457
566 1 0.788509 0.92608 0.5 0.0873462 -0.855029
567 1 0.900201 0.56019 0.5 -0.21383 -0.31713
568 1 0.197255 0.527966 0.5 0.130025 -0.0134243
569 1 0.726578 0.671677 0.5 -0.870639 0.0140032
570 1 0.155913 0.519666 0.5 -0.638257 0.463368
571 1 0.780866 0.851743 0.5 -0.244597 0.265234
572 1 0.475285 0.717887 0.5 0 0
573 1 0.69074 0.70411 0.5 0.023954 -0.494104
574 1 0.815829 0.566469 0.5 0.468153 -0.0520818
575 1 0.401063 0.823384 0.5 -0.110721 0.650787
576 1 0.563195 0.508785 0.5 0 0
577 1 0.165604 0.245564 0.5 -0.506317 0.692496
578 1 0.339623 0.98488 0.5 0.866075 0.317744
579 1 0.971464 0.306535 0.5 -0.492396 -0.607843
580 1 0.712385 0.428507 0.5 -0.406982 0.10301
581 1 0.166968 0.744638 0.5 -0.475476 0.000309005
582 1 0.498684 0.0181402 0.5 -0.681465 0.46625
583 1 0.477103 0.809233 0.5 -0.631864 0.648684
584 1 0.470157 0.741425 0.5 -0.16057 -0.46918
585 1 0.098946 0.44395 0.5 0.114828 -0.123575
586 1 0.823303 0.350905 0.5 -0.478098 -0.261327
587 1 0.0841309 0.698852 0.5 0.0271746 0.584959
588 1 0.556224 0.782272 0.5 0.16074 0.293733
589 1 0.213485 0.782031 0.5 -0.353425 -0.574022
590 1 0.22835 0.334712 0.5 0.555916 0.327888
591 1 0.407459 0.169313 0.5 -0.411694 0.250102
592 1 0.478787 0.759162 0.5 0.0679693 0.685396
593 1 0.0309637 0.540228 0.5 0.33067 -0.785501
594 1 0.454921 0.360803 0.5 0.329672 0.461156
595 1 0.580609 0.328674 0.5 -0.470283 0.00822282
596 1 0.581984 0.366545 0.5 -0.428009 -0.378138
597 1 0.365398 0.250265 0.5 -0.614287 -0.581508
598 1 0.576827 0.686482 0.5 -0.741073 0.571834
599 1 0.773877 0.210196 0.5 -0.201658 -0.82511
600 1 0.554008 0.438096 0.5 0 0
601 1 0.661644 0.59391 0.5 0.563866 0.187524
602 1 0.512642 0.700892 0.5 -0.0900469 0.116582
603 1 0.349317 0.836931 0.5 0.666076 0.617185
604 1 0.52077 0.308087 0.5 -0.358286 0.209047
605 1 0.824099 0.407806 0.5 0.297764 0.0208626
606 1 0.186236 0.385143 0.5 -0.534506 -0.61155
607 1 0.274256 0.5228 0.5 -0.164099 0.394397
608 1 0.565305 0.354495 0.5 -0.0255672 -0.158743
609 1 0.86083 0.0972691 0.5 -0.672321 -0.0178973
610 1 0.814821 0.298045 0.5 0.13971 0.809081
611 1 0.166922 0.51354 0.5 -0.403097 0.268654
612 1 0.666407 0.955132 0.5 0.0702998 -0.25362
613 1 0.349953 0.642209 0.5 -0.00165834 0.427582
614 1 0.541395 0.401156 0.5 -0.549282 0.126625
615 1 0.45141 0.969098 0.5 -0.765487 0.295653
616 1 0.15209 0.875325 0.5 0.651425 -0.42878
617 1 0.638734 0.261658 0.5 -0.44478 0.277013
618 1 0.57438 0.175829 0.5 0.76375 -0.0308138
619 1 0.889235 0.748212 0.5 0.30912 -0.0559133
620 1 0.863563 0.656243 0.5 -0.201747 -0.901826
621 1 0.156824 0.529903 0.5 0.1942 0.348937
622 1 0.974843 0.950948 0.5 0.312563 -0.247095
623 1 0.667772 0.827238 0.5 -0.412836 0.662385
624 1 0.112152 0.347967 0.5 -0.45038 0.63952
625 1 0.436332 0.656436 0.5 0.309587 -0.804769
626 1 0.241305 0.639575 0.5 -0.591215 0.152543
627 1 0.593208 0.28304 0.5 -0.621717 0.015895
628 1 0.91032 0.787714 0.5 -0.541505 0.765212
629 1 0.43373 0.0795495 0.5 0.65664 0.16602
630 1 0.510922 0.305791 0.5 -0.423973 0.725334
631 1 0.867352 0.244157 0.5 -0.671355 -0.244621
632 1 0.0136468 0.680416 0.5 -0.32436 0.149471
633 1 0.802955 0.816205 0.5 0.542698 -0.440051
634 1 0.720265 0.0620883 0.5 -0.145321 0.799259
635 1 0.938539 0.944804 0.5 0 0
636 1 0.0896795 0.45118 0.5 -0.275963 -0.0885775
637 1 0.0862667 0.638174 0.5 -0.500902 -0.503014
638 1 0.454671 0.417154 0.5 -0.865734 -0.141752