ITEM: TIMESTEP
0
ITEM: NUMBER OF ATOMS
9250
ITEM: BOX BOUNDS pp pp pp
-5.8359999999999999e+01 5.8359999999999999e+01
-5.8359999999999999e+01 5.8359999999999999e+01
-5.0000000000000000e-01 5.0000000000000000e-01
ITEM: ATOMS id type xs ys zs c_002[1] c_002[2]
1 1 0.976339 0.518504 0.5 -0.508358 0.474453
2 1 0.916782 0.833271 0.5 -0.0545272 0.901823
3 1 0.984149 0.982506 0.5 -0.283024 -0.180466
4 1 0.986155 0.646798 0.5 -0.158483 -0.100711
5 1 0.172432 0.559919 0.5 -0.386226 -0.297023
6 1 0.91782 0.218449 0.5 -0.666875 0.436811
7 1 0.895595 0.0595118 0.5 -0.41828 0.16199
8 1 0.991487 0.228558 0.5 -0.309267 -0.382765
9 1 0.262327 0.208584 0.5 -0.197525 -0.154651
10 1 0.992814 0.512275 0.5 -0.0150144 0.244379
11 1 0.694917 0.327169 0.5 0.62564 0.614796
12 1 0.579576 0.403375 0.5 -0.520434 -0.0484065
13 1 0.942379 0.0768485 0.5 0.0862564 -0.387497
14 1 0.0138117 0.144709 0.5 -0.422936 -0.411911
15 1 0.616248 0.0854424 0.5 -0.468856 0.292346
16 1 0.0416828 0.534219 0.5 -0.291043 -0.0322299
17 1 0.866801 0.685912 0.5 -0.658992 0.278786
18 1 0.919188 0.804501 0.5 -0.27395 0.426988
19 1 0.0852176 0.257216 0.5 -0.261568 -0.321489
20 1 0.763736 0.322217 0.5 0.249894 -0.0851752
21 1 0.929946 0.477662 0.5 -0.261682 0.261323
22 1 0.695834 0.467409 0.5 0.178757 -0.791086
23 1 0.728812 0.0901645 0.5 -0.411175 0.118071
24 1 0.891477 0.937953 0.5 0.189471 -0.10979
25 1 0.976154 0.86752 0.5 -0.204428 -0.128901
26 1 0.152908 0.277982 0.5 0.367532 -0.338647
27 1 0.185021 0.471798 0.5 0.14069 -0.376948
28 1 0.326897 0.530655 0.5 -0.109375 -0.292219
29 1 0.683243 0.735847 0.5 0.0104519 -0.119547
30 1 0.651014 0.121227 0.5 -0.43474 0.652331
31 1 0.669323 0.145705 0.5 -0.637455 0.249398
32 1 0.0165745 0.307443 0.5 0.114629 -0.340571
33 1 0.694976 0.150155 0.5 -0.337135 0.552365
34 1 0.17695 0.139483 0.5 -0.537634 -0.330236
35 1 0.069849 0.400149 0.5 0.20233 -0.412216
36 1 0.790377 0.629071 0.5 0.537164 0.464818
37 1 0.731277 0.232931 0.5 -0.634758 -0.0181861
38 1 0.916562 0.376022 0.5 -0.464099 -0.744174
39 1 0.221308 0.767979 0.5 0.0493822 0.117365
40 1 0.377565 0.239504 0.5 0.520439 -0.178791
41 1 0.753271 0.218385 0.5 0.888666 6.0879e-05
42 1 0.239883 0.214514 0.5 0.823544 0.304083
43 1 0.341646 0.743953 0.5 0.0982093 0.322623
44 1 0.785227 0.220673 0.5 -0.374963 0.0445817
45 1 0.0243531 0.159025 0.5 -0.313034 0.408135
46 1 0.864474 0.19476 0.5 0.714234 0.058648
47 1 0.981046 0.94897 0.5 -0.227775 -0.0685823
48 1 0.768821 0.04373 0.5 -0.651521 0.415275
49 1 0.184624 0.251098 0.5 0.122742 -0.418775
50 1 0.85763 0.79863 0.5 0.425019 -0.309565
51 1 0.557743 0.22471 0.5 0.679451 0.359683
52 1 0.752005 0.480333 0.5 -0.310245 0.384847
53 1 0.926759 0.0216568 0.5 -0.696628 0.0899803
54 1 0.865283 0.0750168 0.5 0.927404 -0.0607293
55 1 0.996026 0.570381 0.5 0.362103 -0.428169
56 1 0.220541 0.0770034 0.5 0.172813 0.236925
57 1 0.71174 0.319588 0.5 0.580775 0.649573
58 1 0.138465 0.195091 0.5 -0.0408314 0.930666
59 1 0.234323 0.524104 0.5 0.530331 0.726859
60 1 0.155776 0.47202 0.5 -0.655989 -0.337232
61 1 0.907544 0.392078 0.5 -0.457373 0.183487
62 1 0.00656615 0.138124 0.5 -0.0124827 -0.0672499
63 1 0.945741 0.309543 0.5 0.373092 -0.319939
64 1 0.588732 0.388016 0.5 -0.482122 -0.21035
65 1 0.807353 0.16398 0.5 0.20941 0.0655265
66 1 0.0534078 0.308402 0.5 -0.465335 0.38929
67 1 0.342767 0.350994 0.5 -0.085589 -0.116738
68 1 0.315653 0.682316 0.5 0.266789 0.140056
69 1 0.0971036 0.475662 0.5 -0.259125 0.0979896
70 1 0.789266 0.131004 0.5 0.0933028 -0.153942
71 1 0.0991851 0.775603 0.5 0.424937 0.374775
72 1 0.165875 0.46576 0.5 -0.520982 -0.546975
73 1 0.108249 0.797319 0.5 0.0884074 0.00112516
74 1 0.419083 0.0914568 0.5 -0.348385 0.189495
75 1 0.983047 0.511637 0.5 0 0
76 1 0.844574 0.572814 0.5 0.0319518 -0.876708
77 1 0.0318947 0.414335 0.5 -0.261186 0.0559025
78 1 0.915658 0.437217 0.5 -0.149348 0.564598
79 1 0.642861 0.419783 0.5 -0.710275 0.309764
80 1 0.752186 0.757474 0.5 0.6452 0.221052
81 1 0.132062 0.465204 0.5 -0.627871 -0.646386
82 1 0.771783 0.526287 0.5 -0.193079 0.379286
83 1 0.0542573 0.186451 0.5 0.0838038 0.0342065
84 1 0.699125 0.0931499 0.5 -0.336443 -0.237266
85 1 0.220113 0.42471 0.5 -0.035241 0.723342
86 1 0.963356 0.210886 0.5 0.606745 -0.404861
87 1 0.916866 0.273531 0.5 -0.0290703 -0.628039
88 1 0.995025 0.837133 0.5 -0.0696047 0.261116
89 1 0.958742 0.123056 0.5 0.410701 -0.646105
90 1 0.291319 0.671023 0.5 0.578449 0.679643
91 1 0.915794 0.878787 0.5 -0.190294 -0.179962
92 1 0.067066 0.448708 0.5 -0.225956 0.532617
93 1 0.48589 0.0526498 0.5 -0.167999 0.0544692
94 1 0.635307 0.685076 0.5 -0.189923 -0.655661
95 1 0.423458 0.771456 0.5 0.542544 0.0498697
96 1 0.251099 0.455047 0.5 -0.107571 0.874647
97 1 0.8676 0.148701 0.5 -0.167009 -0.636549
98 1 0.813867 0.117289 0.5 -0.323392 0.0135093
99 1 0.0877536 0.0167399 0.5 0 0
100 1 0.115198 0.450412 0.5 0 0
101 1 0.86799 0.397933 0.5 -0.132843 0.481658
102 1 0.42653 0.722151 0.5 0.419086 0.66196
103 1 0.116635 0.423764 0.5 -0.584997 0.686821
104 1 0.101101 0.597619 0.5 0.551701 -0.193863
105 1 0.523177 0.0944513 0.5 0.60192 0.128251
106 1 0.909317 0.18495 0.5 -0.823662 -0.360669
107 1 0.67179 0.322742 0.5 0.23997 0.391389
108 1 0.839888 0.192891 0.5 0.273286 0.563878
109 1 0.00744116 0.411459 0.5 -0.527723 0.625971
110 1 0.187744 0.460216 0.5 0.154537 -0.711711
111 1 0.910704 0.458344 0.5 -0.374006 0.558923
112 1 0.289488 0.591952 0.5 0.0463333 0.501394
113 1 0.552811 0.565064 0.5 0.152184 0.120714
114 1 0.732031 0.358668 0.5 -0.185245 -0.217748
115 1 0.922318 0.766739 0.5 -0.41046 0.353189
116 1 0.0696499 0.0517503 0.5 0.944826 -0.0749094
117 1 0.533013 0.307292 0.5 0.641917 0.488911
118 1 0.832034 0.151341 0.5 0.75788 0.434644
119 1 0.827813 0.645003 0.5 0.27445 0.79481
120 1 0.0348417 0.391283 0.5 -0.495777 0.0849165
121 1 0.893031 0.589868 0.5 0.315232 -0.395359
122 1 0.960688 0.684855 0.5 -0.884336 -0.188721
123 1 0.214077 0.579735 0.5 -0.345671 0.262416
124 1 0.978427 0.833921 0.5 0.0822012 -0.288048
125 1 0.801036 0.305171 0.5 0.0706401 -0.342088
126 1 0.169028 0.296674 0.5 -0.255619 0.19994
127 1 0.654054 0.0196997 0.5 0.290342 -0.0555634
128 1 0.836496 0.602487 0.5 -0.0872603 -0.200934
129 1 0.772913 0.184816 0.5 -0.694858 0.0133631
130 1 0.194114 0.467987 0.5 -0.220085 -0.30779
131 1 0.111389 0.440146 0.5 0.534564 0.571654
132 1 0.634663 0.336008 0.5 0.0986374 0.369471
133 1 0.0145684 0.368688 0.5 0.19328 -0.738828
134 1 0.753553 0.491119 0.5 -0.286809 0.32524
135 1 0.0869535 0.91512 0.5 -0.687805 0.352416
136 1 0.0909446 0.301513 0.5 0.60314 -0.476083
137 1 0.542422 0.99849 0.5 -0.505674 0.752345
138 1 0.216125 0.599484 0.5 0.167813 -0.118955
139 1 0.794913 0.364319 0.5 0.151797 0.304707
140 1 0.283452 0.647504 0.5 0.427963 0.479568
141 1 0.104344 0.617512 0.5 0.0609506 -0.19084
142 1 0.989881 0.736666 0.5 0.261422 -0.827983
143 1 0.909532 0.22425 0.5 -0.712526 -0.263864
144 1 0.354054 0.666602 0.5 0.359521 0.445152
145 1 0.212557 0.889624 0.5 0.672025 -0.562594
146 1 0.809497 0.205415 0.5 -0.681781 -0.125804
147 1 0.882553 0.0273175 0.5 0.693843 -0.342465
148 1 0.0160965 0.120681 0.5 -0.209642 0.424403
149 1 0.218505 0.647696 0.5 -0.0579571 0.161775
150 1 0.910711 0.994115 0.5 -0.925672 -0.156088
151 1 0.97114 0.0294873 0.5 -0.859057 -0.110069
152 1 0.085077 0.226233 0.5 -0.477315 -0.624061
153 1 0.18974 0.593287 0.5 0.391616 -0.0693424
154 1 0.941798 0.694785 0.5 -0.460684 -0.601392
155 1 0.0567206 0.737849 0.5 -0.422895 -0.0213876
156 1 0.785413 0.466954 0.5 -0.448326 -0.258835
157 1 0.698005 0.0599477 0.5 0.395924 -0.126587
158 1 0.103362 0.699298 0.5 0.0644626 -0.131269
159 1 0.376496 0.355505 0.5 -0.536221 -0.596436
160 1 0.930769 0.245021 0.5 -0.579696 0.63991
161 1 0.984282 0.546399 0.5 0.3444 -0.776302
162 1 0.86228 0.371782 0.5 0.493731 -0.698358
163 1 0.733915 0.34829 0.5 0.0249689 -0.246703
164 1 0.948283 0.390237 0.5 0.548543 -0.0108921
165 1 0.12156 0.209328 0.5 0.379105 0.697579
166 1 0.0489318 0.3492 0.5 -0.216487 0.616122
167 1 0.875878 0.392032 0.5 0.0996727 0.311003
168 1 0.246056 0.206959 0.5 0.100149 0.0960203
169 1 0.122714 0.11661 0.5 -0.491056 -0.223105
170 1 0.579807 0.875384 0.5 -0.295538 0.346843
171 1 0.603572 0.122558 0.5 0.00017991 0.170026
172 1 0.178274 0.428296 0.5 -0.26668 -0.123757
173 1 0.74809 0.209241 0.5 0.781327 0.507871
174 1 0.930917 0.33697 0.5 0.699546 -0.222555
175 1 0.867491 0.417955 0.5 0.829113 0.343531
176 1 0.549017 0.926244 0.5 -0.469194 0.511057
177 1 0.354107 0.811105 0.5 0.430984 -0.140994
178 1 0.8322 0.349527 0.5 -0.584643 -0.258771
179 1 0.88693 0.0780988 0.5 -0.0486299 0.644073
180 1 0.894613 0.428481 0.5 0.698051 -0.287229
181 1 0.944702 0.151498 0.5 0.463626 -0.0432731
182 1 0.426043 0.800827 0.5 0.400882 -0.443265
183 1 0.579526 0.18674 0.5 0 0
184 1 0.20244 0.0371938 0.5 -0.0155894 -0.0271063
185 1 0.56471 0.214126 0.5 0.712428 -0.0861423
186 1 0.209708 0.505386 0.5 0.181682 -0.371418
187 1 0.686595 0.788146 0.5 0.193766 -0.418401
188 1 0.113975 0.269174 0.5 0.710589 -0.224767
189 1 0.0957283 0.978876 0.5 -0.700536 -0.526563
190 1 0.92674 0.608541 0.5 0.0179342 -0.128257
191 1 0.0922674 0.494486 0.5 0.16066 0.719186
192 1 0.0972196 0.577892 0.5 -0.283484 -0.771116
193 1 0.0193783 0.559302 0.5 0.171719 -0.142017
194 1 0.0973784 0.968844 0.5 -0.234414 -0.0853161
195 1 0.875293 0.536203 0.5 0.46791 -0.188856
196 1 0.4149 0.64915 0.5 0.205408 0.168891
197 1 0.169671 0.650353 0.5 -0.52942 0.312445
198 1 0.243239 0.614491 0.5 -0.137098 -0.647212
199 1 0.00965617 0.433003 0.5 -0.620809 0.644537
200 1 0.932615 0.489253 0.5 0.376596 0.346685
201 1 0.362328 0.0906264 0.5 0.533817 -0.180333
202 1 0.0558748 0.318828 0.5 -0.305658 0.798851
203 1 0.920309 0.48031 0.5 0.14179 -0.413345
204 1 0.821002 0.0137416 0.5 0.0412298 -0.704164
205 1 0.762469 0.591173 0.5 0.293809 -0.19042
206 1 0.0633749 0.436046 0.5 0.00830495 0.308126
207 1 0.173928 0.471756 0.5 0.158648 0.328975
208 1 0.871411 0.0311023 0.5 0.440724 -0.0293301
209 1 0.0354741 0.0881732 0.5 0.160699 0.480849
210 1 0.366196 0.512164 0.5 -0.0894584 0.719766
211 1 0.993228 0.265792 0.5 0.353812 0.685559
212 1 0.929232 0.317082 0.5 0.530366 0.138784
213 1 0.0605564 0.660433 0.5 0.0866989 -0.0335751
214 1 0.372828 0.391016 0.5 0.423005 0.152188
215 1 0.480317 0.581649 0.5 0.480243 -0.481998
216 1 0.686856 0.260929 0.5 -0.322354 0.321138
217 1 0.112982 0.318484 0.5 0.74168 0.106289
218 1 0.927151 0.395331 0.5 -0.166581 -0.593111
219 1 0.299689 0.755993 0.5 0.314682 -0.094483
220 1 0.0181636 0.0685025 0.5 -0.54161 -0.768564
221 1 0.823717 0.345197 0.5 -0.487172 0.401555
222 1 0.744741 0.343995 0.5 -0.605608 -0.181432
223 1 0.274741 0.349236 0.5 -0.344476 0.024461
224 1 0.72957 0.569433 0.5 0.141865 0.722671
225 1 0.0295702 0.756051 0.5 -0.0335507 0.020318
226 1 0.753797 0.581534 0.5 -0.556122 -0.480426
227 1 0.19245 0.655966 0.5 -0.726567 0.38579
228 1 0.972762 0.25582 0.5 0.329758 0.291479
229 1 0.0679237 0.145563 0.5 -0.549343 0.0760366
230 1 0.447358 0.129818 0.5 -0.146316 -0.70185
231 1 0.919004 0.557618 0.5 0.0979107 -0.0792748
232 1 0.699507 0.667169 0.5 0.0444804 0.201067
233 1 0.989644 0.323593 0.5 -0.991211 0.0235914
234 1 0.961112 0.500642 0.5 0.215286 0.4028
235 1 0.520595 0.213033 0.5 -0.446383 0.165761
236 1 0.487191 0.612677 0.5 0.534778 0.24235
237 1 0.196383 0.234121 0.5 -0.565888 0.279198
238 1 0.0424131 0.524576 0.5 -0.216892 -0.632753
239 1 0.164914 0.836267 0.5 0.325397 -0.16293
240 1 0.227345 0.342327 0.5 0.493442 0.0445892
241 1 0.926644 0.223117 0.5 0.299984 0.244276
242 1 0.112801 0.558094 0.5 0.551981 -0.202199
243 1 0.165284 0.606867 0.5 -0.0460782 0.251745
244 1 0.647265 0.608517 0.5 -0.376135 0.197118
245 1 0.068407 0.668275 0.5 -0.0235984 -0.286362
246 1 0.963203 0.958281 0.5 -0.298788 0.251187
247 1 0.943062 0.578837 0.5 0.762422 0.215835
248 1 0.0724509 0.566639 0.5 -0.246077 -0.451492
249 1 0.269076 0.618613 0.5 0.325979 0.554627
250 1 0.795594 0.494497 0.5 0.572255 0.209181
251 1 0.864906 0.315499 0.5 0.730833 0.426879
252 1 0.626573 0.183377 0.5 -0.291887 0.527909
253 1 0.596389 0.190555 0.5 -0.270713 -0.85064
254 1 0.0290371 0.193038 0.5 -0.450052 -0.425882
255 1 0.966973 0.0857808 0.5 -0.477192 -0.742946
256 1 0.0194809 0.623159 0.5 -0.0898973 -0.396556
257 1 0.00486501 0.725714 0.5 0.0955974 -0.515558
258 1 0.797019 0.276832 0.5 0.255034 -0.833686
259 1 0.0787558 0.0325189 0.5 -0.20943 -0.345868
260 1 0.581235 0.316987 0.5 0.00564134 0.22286
261 1 0.654749 0.335973 0.5 0.0966575 -0.307483
262 1 0.915108 0.0145691 0.5 -0.504738 0.422439
263 1 0.639487 0.066786 0.5 -0.772937 -0.183326
264 1 0.549548 0.359285 0.5 0.0596907 -0.490376
265 1 0.417712 0.0256084 0.5 0.343859 0.433719
266 1 0.943349 0.526034 0.5 -0.183364 -0.430182
267 1 0.978867 0.199931 0.5 0.662985 -0.607638
268 1 0.709027 0.77397 0.5 -0.0790148 0.188463
269 1 0.982898 0.436865 0.5 0.746457 -0.0967771
270 1 0.165194 0.804569 0.5 0.63128 -0.42571
271 1 0.487688 0.819954 0.5 0.839757 0.25723
272 1 0.929167 0.759369 0.5 0.0768373 0.229047
273 1 0.656367 0.891025 0.5 -0.736717 0.0108542
274 1 0.027746 0.42996 0.5 -0.0849006 0.943217
275 1 0.77562 0.924878 0.5 -0.263471 -0.205417
276 1 0.22232 0.785288 0.5 0.266864 -0.365727
277 1 0.0742363 0.749887 0.5 0.824539 0.329312
278 1 0.996995 0.167177 0.5 -0.282972 -0.579992
279 1 0.987974 0.417219 0.5 0.695927 0.414917
280 1 0.957789 0.148822 0.5 -0.0897254 -0.230764
281 1 0.438177 0.100087 0.5 0.228822 0.141023
282 1 0.261159 0.409226 0.5 0.0287769 0.70496
283 1 0.213134 0.69618 0.5 0.0377485 -0.245342
284 1 0.0165419 0.883024 0.5 -0.148972 -0.00173995
285 1 0.0712721 0.804522 0.5 0 0
286 1 0.731107 0.313663 0.5 -0.603265 0.43558
287 1 0.403165 0.485949 0.5 0.325343 -0.493106
288 1 0.820944 0.503566 0.5 -0.481276 0.33686
289 1 0.395753 0.954961 0.5 -0.00918152 -0.26346
290 1 0.80026 0.837271 0.5 -0.592681 0.393797
291 1 0.960497 0.224476 0.5 -0.566969 0.0586884
292 1 0.810682 0.184692 0.5 -0.899392 -0.122692
293 1 0.752777 0.56867 0.5 0 0
294 1 0.846065 0.676061 0.5 -0.404081 0.0899106
295 1 0.759801 0.604224 0.5 0.0450303 -0.314279
296 1 0.897644 0.543439 0.5 -0.160777 -0.565215
297 1 0.0986147 0.625936 0.5 0.355613 -0.288391
298 1 0.0880994 0.97243 0.5 0.121511 -0.351324
299 1 0.958249 0.532496 0.5 -0.364659 -0.49822
300 1 0.341986 0.66442 0.5 -0.460096 0.548134
301 1 0.132143 0.585275 0.5 0.0122964 0.577109
302 1 0.864658 0.0569828 0.5 0.237144 0.405005
303 1 0.790336 0.475355 0.5 -0.229156 0.0689129
304 1 0.0264924 0.652256 0.5 -0.156479 0.524138
305 1 0.257143 0.426317 0.5 0.261712 0.651747
306 1 0.669688 0.738101 0.5 0.563731 -0.0233662
307 1 0.857669 0.429161 0.5 -0.474323 0.326674
308 1 0.53079 0.333036 0.5 -0.179749 0.14715
309 1 0.210067 0.328775 0.5 0.635459 -0.133984
310 1 0.412327 0.667 0.5 -0.165303 0.477605
311 1 0.968802 0.417476 0.5 -0.240931 -0.431466
312 1 0.701313 0.698401 0.5 0.448171 -0.508049
313 1 0.45751 0.633878 0.5 0 0
314 1 0.00640013 0.881738 0.5 -0.437316 0.118494
315 1 0.937902 0.625299 0.5 -0.386116 0.371354
316 1 0.836755 0.689035 0.5 -0.469622 -0.0500527
317 1 0.374075 0.630377 0.5 -0.0491666 -0.091089
318 1 0.00265414 0.948003 0.5 0 0
319 1 0.126217 0.764476 0.5 -0.650753 0.464862
320 1 0.246907 0.552517 0.5 0.276175 0.849634
321 1 0.227515 0.10312 0.5 -0.574357 0.613614
322 1 0.0857597 0.524979 0.5 0.0308199 0.0217112
323 1 0.895594 0.617394 0.5 -0.508665 0.81238
324 1 0.789935 0.781143 0.5 0.650833 -0.323974
325 1 0.909182 0.600877 0.5 -0.15 0.134545
326 1 0.731819 0.778415 0.5 -0.419248 -0.118771
327 1 0.918263 0.502186 0.5 0.700377 -0.537307
328 1 0.721059 0.426648 0.5 -0.0987678 -0.178272
329 1 0.56217 0.809448 0.5 -0.694855 -0.263602
330 1 0.916437 0.736783 0.5 0.0783809 -0.599779
331 1 0.692649 0.679253 0.5 -0.327037 0.0481361
332 1 0.864221 0.847803 0.5 -0.608019 0.011537
333 1 0.855308 0.679348 0.5 -0.52568 0.201088
334 1 0.149722 0.762863 0.5 0.170331 0.322722
335 1 0.321767 0.880827 0.5 0.0215469 -0.80907
336 1 0.855347 0.610841 0.5 -0.120702 0.0359808
337 1 0.435916 0.351471 0.5 0.3872 0.63114
338 1 0.58074 0.607081 0.5 0.10819 0.388164
339 1 0.9069 0.686126 0.5 -0.794398 0.216352
340 1 0.886437 0.49861 0.5 -0.274319 0.0764586
341 1 0.772048 0.85984 0.5 0.45009 -0.788754
342 1 0.661464 0.394978 0.5 -0.917392 -0.275214
343 1 0.912818 0.898909 0.5 0.527993 -0.0699577
344 1 0.343841 0.770075 0.5 -0.0535189 0.691737
345 1 0.713304 0.528022 0.5 0.212016 -0.578152
346 1 0.0311379 0.23299 0.5 0.0853315 0.493927
347 1 0.217314 0.364065 0.5 -0.191792 -0.597871
348 1 0.287003 0.690887 0.5 0.0698003 0.0200232
349 1 0.832784 0.793033 0.5 0.270703 -0.132555
350 1 0.897821 0.563805 0.5 0 0
351 1 0.917365 0.449293 0.5 -0.120836 0.667054
352 1 0.832553 0.736448 0.5 -0.396303 -0.318394
353 1 0.101205 0.711466 0.5 -0.130945 -0.656472
354 1 0.0759578 0.583914 0.5 0.643027 0.0961889
355 1 0.534634 0.61331 0.5 -0.190638 -0.363734
356 1 0.106033 0.875708 0.5 -0.462397 0.450559
357 1 0.387997 0.811942 0.5 0.552103 -0.678974
358 1 0.500928 0.787756 0.5 -0.298275 0.486898
359 1 0.468368 0.593384 0.5 -0.13751 -0.220176
360 1 0.308237 0.524941 0.5 -0.357489 0.179979
361 1 0.933785 0.122306 0.5 0.0319765 0.31566
362 1 0.214313 0.814198 0.5 -0.351213 0.412642
363 1 0.887263 0.281683 0.5 0.327194 -0.0828878
364 1 0.691571 0.00168836 0.5 0.379738 -0.525613
365 1 0.223201 0.3208 0.5 0.262861 0.0212464
366 1 0.0110255 0.00745033 0.5 -0.869037 -0.114787
367 1 0.00859909 0.850151 0.5 -0.478441 -0.0191124
368 1 0.113524 0.857472 0.5 -0.697693 0.616396
369 1 0.929118 0.422547 0.5 0.387026 -0.271321
370 1 0.932458 0.663012 0.5 -0.548088 -0.340685
371 1 0.387299 0.483881 0.5 -0.439938 -0.13489
372 1 0.480627 0.0440418 0.5 0.0499476 0.615785
373 1 0.413823 0.625958 0.5 -0.201947 -0.0502278
374 1 0.958529 0.82965 0.5 -0.0137363 0.349102
375 1 0.437564 0.389773 0.5 0.553406 -0.458412
376 1 0.334985 0.625543 0.5 0.539288 0.453904
377 1 0.858146 0.558615 0.5 0.0473646 -0.912705
378 1 0.237759 0.651888 0.5 -0.499888 0.534205
379 1 0.346928 0.592398 0.5 -0.35903 -0.0395468
380 1 0.17864 0.52154 0.5 -0.342678 -0.0580459
381 1 0.691978 0.849313 0.5 0.222101 0.00510648
382 1 0.763552 0.886086 0.5 0.0836492 0.658803
383 1 0.663661 0.745938 0.5 0.64249 -0.140768
384 1 0.387726 0.515624 0.5 0.914472 -0.0198374
385 1 0.676232 0.703704 0.5 -0.427102 -0.154238
386 1 0.295337 0.438294 0.5 0.148741 0.150515
387 1 0.0847815 0.375291 0.5 0 0
388 1 0.821779 0.65303 0.5 0.638732 0.701654
389 1 0.989246 0.376149 0.5 0.185625 -0.297849
390 1 0.135003 0.947483 0.5 -0.186239 -0.0123142
391 1 0.819793 0.260466 0.5 -0.302909 0.462454
392 1 0.986925 0.525038 0.5 0.0258373 0.0450117
393 1 0.304314 0.604451 0.5 0.373119 0.19756
394 1 0.0871496 0.625368 0.5 0.454119 0.121623
395 1 0.878771 0.585498 0.5 0.21143 0.220107
396 1 0.048219 0.429803 0.5 -0.32651 0.050444
397 1 0.920064 0.842157 0.5 0.22528 0.28592
398 1 0.222947 0.841641 0.5 0.481221 -0.687675
399 1 0.241072 0.595861 0.5 0.553906 -0.293389
400 1 0.821161 0.791846 0.5 0.26733 0.395233
401 1 0.255059 0.60562 0.5 0.0632447 0.814692
402 1 0.375101 0.607043 0.5 -0.607 0.509077
403 1 0.881343 0.595532 0.5 -0.217095 0.669648
404 1 0.436779 0.677445 0.5 -0.106252 0.0617597
405 1 0.211304 0.487516 0.5 0.0681922 -0.272008
406 1 0.602663 0.843143 0.5 0.362932 -0.653626
407 1 0.492803 0.900002 0.5 -0.440681 -0.507366
408 1 0.551115 0.661137 0.5 -0.192395 0.76849
409 1 0.961949 0.478534 0.5 -0.127298 -0.443359
410 1 0.768153 0.699297 0.5 0.667999 -0.310678
411 1 0.979734 0.237051 0.5 -0.415315 0.0948519
412 1 0.457979 0.751945 0.5 0.374287 0.227525
413 1 0.304324 0.730989 0.5 0.227925 0.186033
414 1 0.217347 0.566938 0.5 -0.0192693 -0.467657
415 1 0.67953 0.633902 0.5 -0.501528 0.217892
416 1 0.357571 0.756521 0.5 -0.552322 0.807519
417 1 0.950467 0.63895 0.5 -0.0138341 0.898517
418 1 0.311607 0.0239866 0.5 -0.139069 0.56269
419 1 0.299428 0.594455 0.5 0 0
420 1 0.343939 0.673976 0.5 -0.00729455 0.20066
421 1 0.200625 0.671395 0.5 -0.766996 -0.207856
422 1 0.253406 0.519422 0.5 -0.834025 0.243396
423 1 0.454787 0.791699 0.5 0.165181 -0.0056486
424 1 0.725332 0.160231 0.5 0.0123099 0.687258
425 1 0.165392 0.479601 0.5 -0.316096 -0.169459
426 1 0.543465 0.598044 0.5 -0.527113 -0.7631
427 1 0.251561 0.595632 0.5 0.709909 0.423131
428 1 0.898302 0.281264 0.5 0.200761 -0.134223
429 1 0.834841 0.877596 0.5 -0.650876 0.0241854
430 1 0.0184373 0.588291 0.5 0.693553 -0.129166
431 1 0.917425 0.54731 0.5 -0.0738808 0.353332
432 1 0.915926 0.916961 0.5 -0.464914 -0.724966
433 1 0.0686085 0.59017 0.5 0.404368 0.0303546
434 1 0.884836 0.243754 0.5 -0.395362 -0.256049
435 1 0.773557 0.98308 0.5 0.000218448 0.448707
436 1 0.218141 0.672765 0.5 -0.173621 -0.424623
437 1 0.790795 0.656385 0.5 0.323683 -0.180682
438 1 0.275381 0.71879 0.5 -0.849939 0.0220916
439 1 0.960106 0.334254 0.5 -0.717359 0.116616
440 1 0.0625673 0.560904 0.5 -0.512009 -0.114098
441 1 0.382797 0.687611 0.5 -0.080183 0.466229
442 1 0.854767 0.657389 0.5 0.62987 0.138303
443 1 0.00804167 0.240208 0.5 -0.338099 -0.420545
444 1 0.468706 0.647525 0.5 -0.336833 0.585659
445 1 0.988858 0.154783 0.5 -0.204702 0.71054
446 1 0.250437 0.702999 0.5 -0.0431686 0.2151
447 1 0.0307839 0.297662 0.5 -0.127752 -0.929921
448 1 0.593917 0.211714 0.5 -0.764217 -0.208461
449 1 0.22604 0.60789 0.5 0.622093 -0.289443
450 1 0.215156 0.748769 0.5 0.573639 0.497022
451 1 0.985524 0.299454 0.5 0.557849 0.506776
452 1 0.794569 0.639875 0.5 0.147405 0.844584
453 1 0.0417205 0.47061 0.5 -0.711049 0.0446212
454 1 0.776332 0.619737 0.5 0.288231 -0.432631
455 1 0.296823 0.805485 0.5 -0.124045 -0.391585
456 1 0.624338 0.173262 0.5 0.147949 0.565613
457 1 0.0853945 0.644109 0.5 -0.2956 0.694216
458 1 0.161519 0.645284 0.5 -0.879805 0.140663
459 1 0.0305896 0.440129 0.5 0.02905 0.918608
460 1 0.255068 0.854969 0.5 -0.427734 -0.0306733
461 1 0.180344 0.702854 0.5 0.186305 0.382527
462 1 0.793742 0.915272 0.5 -0.322842 -0.686193
463 1 0.398907 0.929397 0.5 0.385951 -0.324894
464 1 0.0802288 0.513902 0.5 0.443452 0.239244
465 1 0.138424 0.758099 0.5 -0.108226 0.352023
466 1 0.0748696 0.640961 0.5 0.367932 0.664888
467 1 0.304169 0.427867 0.5 0.213246 0.0772057
468 1 0.114906 0.476937 0.5 -0.112201 -0.0919686
469 1 0.147124 0.236577 0.5 -0.0686695 0.252999
470 1 0.487352 0.589942 0.5 0.543311 -0.703251
471 1 0.916426 0.625328 0.5 -0.644275 0.632072
472 1 0.0142439 0.668212 0.5 0.0648014 0.451522
473 1 0.27147 0.799095 0.5 -0.591042 -0.415423
474 1 0.231777 0.54143 0.5 0.705085 0.566873
475 1 0.809458 0.738762 0.5 0.114538 -0.564633
476 1 0.998806 0.417226 0.5 -0.00402521 0.606548
477 1 0.355658 0.721012 0.5 -0.0558962 -0.778235
478 1 0.0148448 0.548962 0.5 0.418516 -0.312281
479 1 0.122529 0.591841 0.5 -0.70281 0.678278
480 1 0.555031 0.584263 0.5 -0.120157 -0.631223
481 1 0.203047 0.318983 0.5 0.845218 0.11944
482 1 0.0487818 0.890846 0.5 0.618504 -0.13807
483 1 0.263417 0.49467 0.5 -0.675809 -0.0541155
484 1 0.277915 0.996986 0.5 -0.571839 0.246753
485 1 0.106993 0.549671 0.5 0.0582989 -0.65208
486 1 0.993841 0.188678 0.5 0.375002 -0.479949
487 1 0.909733 0.194705 0.5 -0.200785 -0.43075
488 1 0.10622 0.490867 0.5 -0.391324 -0.478039
489 1 0.630103 0.974596 0.5 -0.684235 -0.145022
490 1 0.467227 0.608822 0.5 0.356658 0.132515
491 1 0.951625 0.498962 0.5 0.283444 0.462295
492 1 0.968527 0.690713 0.5 -0.735699 -0.374255
493 1 0.862117 0.899752 0.5 -0.0743451 -0.460629
494 1 0.730534 0.223254 0.5 -0.93295 0.149901
495 1 0.168758 0.627969 0.5 0.112242 0.680138
496 1 0.0371882 0.422517 0.5 -0.334647 0.201768
497 1 0.29672 0.291175 0.5 0.538031 0.49985
498 1 0.294293 0.380363 0.5 0.498422 -0.46231
499 1 0.119766 0.515728 0.5 0.0255513 -0.857828
500 1 0.882464 0.273413 0.5 0.044202 -0.017265
501 1 0.87486 0.650557 0.5 -0.302487 0.379596
502 1 0.00404184 0.663411 0.5 0.322679 0.322163
503 1 0.0907591 0.561129 0.5 -0.194054 -0.675586
504 1 0.434642 0.656056 0.5 -0.35883 0.201423
505 1 0.970953 0.648288 0.5 -0.577947 0.0289337
506 1 0.520578 0.761129 0.5 0.517262 0.266886
507 1 0.198648 0.639274 0.5 0.0730414 0.673543
508 1 0.746042 0.436177 0.5 0.901364 -0.249575
509 1 0.744362 0.553708 0.5 0 0
510 1 0.040218 0.344743 0.5 -0.0312642 -0.03298
511 1 0.229876 0.638043 0.5 -0.0611923 0.170722
512 1 0.123036 0.701099 0.5 -0.552413 -0.190631
513 1 0.424664 0.811516 0.5 0.218173 -0.717458
514 1 0.425289 0.614355 0.5 -0.0140022 -0.699148
515 1 0.651632 0.774094 0.5 -0.553243 -0.0456705
516 1 0.164622 0.595548 0.5 0.386697 0.531118
517 1 0.671303 0.720177 0.5 0.247519 0.790374
518 1 0.323467 0.439534 0.5 -0.817814 0.159319
519 1 0.0663692 0.845139 0.5 -0.256181 0.252993
520 1 0.567927 0.860953 0.5 0 0
521 1 0.22291 0.795774 0.5 0.105698 -0.201029
522 1 0.807984 0.642106 0.5 0.479868 0.332084
523 1 0.950543 0.728814 0.5 -0.515033 -0.275406
524 1 0.896073 0.671288 0.5 0.282783 0.475898
525 1 0.904214 0.910002 0.5 -0.702627 0.12639
526 1 0.910099 0.00373453 0.5 -0.426062 -0.0511988
527 1 0.408295 0.516215 0.5 0.956542 0.183926
528 1 0.19239 0.742487 0.5 0.164591 -0.347351
529 1 0.0589229 0.14204 0.5 -0.597473 -0.275898
530 1 0.00937885 0.626097 0.5 0.434571 -0.470078
531 1 0.0504322 0.0111437 0.5 0.601752 -0.580742
532 1 0.876334 0.0743315 0.5 0.457072 0.39729
533 1 0.679407 0.269742 0.5 0.175044 0.848209
534 1 0.558546 0.740023 0.5 0.392907 -0.482436
535 1 0.787904 0.975381 0.5 0.597866 -0.52242
536 1 0.274235 0.69901 0.5 -0.199926 -0.0874509
537 1 0.557227 0.712577 0.5 0.0230338 0.611697
538 1 0.250671 0.727653 0.5 -0.612812 0.542683
539 1 0.83382 0.667571 0.5 -0.379838 0.0664072
540 1 0.929968 0.36373 0.5 -0.114053 -0.143735
541 1 0.208345 0.639229 0.5 0.243177 -0.187088
542 1 0.19515 0.251033 0.5 0.19018 -0.174842
543 1 0.327341 0.582043 0.5 0.340607 -0.270104
544 1 0.0592415 0.349226 0.5 -0.400721 0.320838
545 1 0.0855311 0.331259 0.5 0.00921353 0.187932
546 1 0.799479 0.555535 0.5 0.186463 0.00955645
547 1 0.817855 0.623079 0.5 0.619913 -0.52339
548 1 0.403035 0.456893 0.5 0.123194 0.552947
549 1 0.465166 0.576144 0.5 -0.21495 -0.470417
550 1 0.917364 0.605707 0.5 -0.338216 -0.416423
551 1 0.534283 0.851284 0.5 -0.272455 0.227669
552 1 0.33135 0.688271 0.5 0.061376 -0.756382
553 1 0.63706 0.581188 0.5 -0.524837 0.393459
554 1 0.794477 0.462228 0.5 -0.352186 0.138426
555 1 0.400741 0.565803 0.5 0.22559 0.135499
556 1 0.35097 0.824533 0.5 -0.0646369 -0.0234019
557 1 0.0855242 0.864845 0.5 -0.921712 0.13608
558 1 0.0972681 0.532709 0.5 -0.717508 -0.24397
559 1 0.144335 0.962782 0.5 0 0
560 1 0.29357 0.571808 0.5 0.48238 0.454464
561 1 0.174674 0.278271 0.5 0.448239 0.262395
562 1 0.133557 0.212531 0.5 -0.0664666 0.897882
563 1 0.0337993 0.133445 0.5 -0.707639 0.33264
564 1 0.32732 0.756812 0.5 0.0499763 0.78515
565 1 0.657772 0.66913 0.5 -0.337374 -0.0245825
566 1 0.775562 0.743532 0.5 0.38294 -0.0922307
567 1 0.0274007 0.32734 0.5 0.22797 -0.415569
568 1 0.193549 0.478632 0.5 -0.0925968 0.274461
569 1 0.829212 0.745471 0.5 0.228182 0.150859
570 1 0.402218 0.799639 0.5 0.769499 -0.431681
571 1 0.957504 0.79832 0.5 -0.529901 0.421871
572 1 0.438111 0.58189 0.5 -0.439592 0.710485
573 1 0.853849 0.875978 0.5 -0.801781 0.523685
574 1 0.0669809 0.0982534 0.5 -0.757129 0.275679
575 1 0.00140033 0.735506 0.5 0.580021 -0.577639
576 1 0.477763 0.61103 0.5 0.52072 0.80873
577 1 0.720733 0.43648 0.5 -0.135354 0.621754
578 1 0.314196 0.834418 0.5 -0.611673 -0.706858
579 1 0.997762 0.318825 0.5 -0.0944568 0.102699
580 1 0.224627 0.494941 0.5 -0.281185 0.455826
581 1 0.3976 0.86486 0.5 0.00462715 -0.805664
582 1 0.511491 0.894082 0.5 0.841219 -0.218854
583 1 0.802834 0.864551 0.5 0.489321 0.11676
584 1 0.267129 0.84033 0.5 -0.180688 -0.376492
585 1 0.857048 0.689494 0.5 -0.585485 0.421593
586 1 0.00739683 0.360717 0.5 0.328527 -0.25406
587 1 0.0722255 0.829704 0.5 -0.381636 0.349364
588 1 0.773858 0.708043 0.5 0.357603 -0.533338
589 1 0.35547 0.834645 0.5 0.149733 0.471658
590 1 0.700794 0.182788 0.5 -0.195936 0.154209
591 1 0.135909 0.2614 0.5 -0.308363 0.0986425
592 1 0.623622 0.731586 0.5 0.174865 0.20152
593 1 0.105144 0.500522 0.5 -0.135985 -0.557933
594 1 0.73484 0.549523 0.5 -0.124303 0.233252
595 1 0.794102 0.544958 0.5 0.0483416 0.633774
596 1 0.800953 0.599173 0.5 -0.0874106 0.785767
597 1 0.769637 0.58374 0.5 0.279302 0.755524
598 1 0.798527 0.650952 0.5 -0.00324633 0.27665
599 1 0.143519 0.246389 0.5 0.158316 0.331777
600 1 0.770178 0.735836 0.5 0.583403 -0.142744
601 1 0.00602685 0.692248 0.5 0.00189018 -0.465155
602 1 0.549116 0.771506 0.5 -0.288744 0.809455
603 1 0.298058 0.783166 0.5 0 0
604 1 0.776489 0.471494 0.5 -0.408236 -0.0812997
605 1 0.850548 0.90199 0.5 -0.0263626 -0.56092
606 1 0.383865 0.525144 0.5 0.421279 -0.167922
607 1 0.435097 0.752739 0.5 0.356253 0.333177
608 1 0.711997 0.898177 0.5 0.0368001 0.427228
609 1 0.0459598 0.161923 0.5 -0.537681 0.0166066
610 1 0.979366 0.0365822 0.5 -0.439185 0.265362
611 1 0.146346 0.622535 0.5 0.227203 0.162356
612 1 0.770714 0.0533222 0.5 -0.148979 0.836211
613 1 0.258801 0.6964 0.5 -0.425303 -0.393254
614 1 0.981493 0.328469 0.5 -0.32587 -0.281289
615 1 0.943027 0.765769 0.5 -0.303583 -0.0163315
616 1 0.223941 0.818066 0.5 -0.176263 0.523077
617 1 0.742682 0.965629 0.5 -0.468727 0.205398
618 1 0.742802 0.174227 0.5 0.609875 0.0846617
619 1 0.109907 0.728456 0.5 -0.281553 0.33258
620 1 0.694385 0.917887 0.5 0.109152 -0.529642
621 1 0.307349 0.781855 0.5 0.861497 0.099743
622 1 0.904396 0.890669 0.5 -0.38596 -0.780226
623 1 0.898628 0.701469 0.5 -0.480061 0.593641
624 1 0.269434 0.438073 0.5 -0.0315721 0.799799
625 1 0.234663 0.83892 0.5 0.43451 -0.7471
626 1 0.229381 0.803578 0.5 0.356451 -0.341422
627 1 0.859291 0.440079 0.5 0 0
628 1 0.962196 0.766365 0.5 -0.669324 0.119864
629 1 0.621998 0.0680278 0.5 -0.651675 0.501477
630 1 0.881677 0.307468 0.5 -0.135053 0.02178
631 1 0.032666 0.898589 0.5 0.143091 0.404229
632 1 0.0447189 0.744614 0.5 -0.228868 -0.196623
633 1 0.827605 0.68559 0.5 -0.0156007 0.43056
634 1 0.000617764 0.0452864 0.5 -0.715792 0.614829
635 1 0.152847 0.938531 0.5 0.417379 -0.418096
636 1 0.306316 0.493233 0.5 0.096267 0.436948
637 1 0.171415 0.639807 0.5 -0.332715 0.301506
638 1 0.315492 0.622618 0.5 0.26024 0.741695