ITEM: TIMESTEP
0
ITEM: NUMBER OF ATOMS
10945
ITEM: BOX BOUNDS pp pp pp
-5.8359999999999999e+01 5.8359999999999999e+01
-5.8359999999999999e+01 5.8359999999999999e+01
-5.0000000000000000e-01 5.0000000000000000e-01
ITEM: ATOMS id type xs ys zs c_002[1] c_002[2]
1 1 0.058076 0.155349 0.5 -0.389713 -0.78719
2 1 0.0529148 0.139226 0.5 -0.24835 -0.913818
3 1 0.0785716 0.0569662 0.5 -0.231375 -0.87826
4 1 0.0138422 0.189199 0.5 -0.514282 -0.581532
5 1 0.0781846 0.15025 0.5 -0.362549 -0.895131
6 1 0.0695163 0.188886 0.5 -0.340019 -0.879075
7 1 0.0323539 0.239779 0.5 -0.229319 -0.95685
8 1 0.0744937 0.169557 0.5 -0.059191 -0.967661
9 1 0.0764749 0.112318 0.5 -0.461389 -0.845432
10 1 0.984414 0.0788403 0.5 -0.536742 -0.782589
11 1 0.0230551 0.0560717 0.5 -0.344858 -0.854763
12 1 0.034462 0.229535 0.5 -0.442599 -0.788595
13 1 0.0210456 0.0654436 0.5 -0.167632 -0.966662
14 1 0.0669309 0.11596 0.5 -0.168452 -0.89726
15 1 0.0335886 0.0998471 0.5 -0.245352 -0.927842
16 1 0.0297318 0.249786 0.5 -0.196871 -0.941336
17 1 0.993118 0.0751802 0.5 -0.54043 -0.786586
18 1 0.0673464 0.0238226 0.5 -0.485104 -0.824043
19 1 0.0276267 0.129049 0.5 -0.488103 -0.794332
20 1 0.999304 0.0459909 0.5 -0.322581 -0.87933
21 1 0.0935751 0.162589 0.5 -0.380703 -0.869905
22 1 0.0818647 0.176813 0.5 -0.189436 -0.867598
23 1 0.100069 0.0858636 0.5 -0.282097 -0.825786
24 1 0.0192545 0.168228 0.5 -0.360308 -0.85009
25 1 0.0960144 0.106113 0.5 -0.263741 -0.918567
26 1 0.0241278 0.184454 0.5 -0.571996 -0.681658
27 1 0.0391792 0.115715 0.5 -0.377193 -0.888875
28 1 0.0747236 0.254365 0.5 -0.298667 -0.864917
29 1 0.0773306 0.232844 0.5 -0.560274 -0.797929
30 1 0.0313813 0.0258114 0.5 -0.6734 -0.697783
31 1 0.0487159 0.157975 0.5 -0.361181 -0.901549
32 1 0.0765251 0.159918 0.5 -0.302644 -0.928177
33 1 0.0583225 0.202717 0.5 -0.265749 -0.81457
34 1 0.033487 0.192538 0.5 -0.362219 -0.667547
35 1 0.0966848 0.143126 0.5 -0.355925 -0.837257
36 1 0.0815064 0.212693 0.5 -0.135798 -0.87004
37 1 0.039611 0.0318819 0.5 -0.130121 -0.752297
38 1 0.0215225 0.158866 0.5 -0.509655 -0.770614
39 1 0.99209 0.251813 0.5 -0.319437 -0.94104
40 1 0.0626826 0.135472 0.5 -0.500064 -0.722835
41 1 0.090232 0.136401 0.5 -0.0195995 -0.957664
42 1 0.0498907 0.242513 0.5 -0.305064 -0.801174
43 1 0.0858388 0.240289 0.5 -0.742226 -0.599275
44 1 0.0359872 0.0426704 0.5 0.346301 -0.866892
45 1 0.0134038 0.198768 0.5 -0.416095 -0.740434
46 1 0.0120182 0.116622 0.5 -0.400715 -0.732849
47 1 0.995773 0.195086 0.5 -0.578453 -0.807483
48 1 0.0840188 0.166317 0.5 -0.46106 -0.876729
49 1 0.0437588 0.0500969 0.5 -0.197843 -0.865605
50 1 0.992215 0.0850687 0.5 -0.465824 -0.795914
51 1 0.98744 0.142656 0.5 -0.113314 -0.934166
52 1 0.0540376 0.2129 0.5 -0.173334 -0.733994
53 1 0.0679861 0.0605611 0.5 -0.340042 -0.894766
54 1 0.06414 0.0806034 0.5 -0.533837 -0.77023
55 1 0.086811 0.192137 0.5 -0.312074 -0.896462
56 1 0.0942443 0.245687 0.5 -0.722648 -0.537316
57 1 0.045141 0.1796 0.5 -0.135259 -0.823508
58 1 0.000593805 0.0362921 0.5 -0.40071 -0.879161
59 1 0.0117335 0.0683853 0.5 -0.482455 -0.814698
60 1 0.00872519 0.21799 0.5 -0.468465 -0.777157
61 1 0.0475179 0.20559 0.5 0.128153 -0.976372
62 1 0.0599727 0.14596 0.5 -0.29163 -0.924229
63 1 0.0761891 0.244393 0.5 -0.509227 -0.743385
64 1 0.0106651 0.161693 0.5 -0.366685 -0.882884
65 1 0.0687935 0.152705 0.5 -0.347251 -0.859122
66 1 0.0538282 0.222857 0.5 -0.229541 -0.724477
67 1 0.0149078 0.104782 0.5 -0.165846 -0.74924
68 1 0.037417 0.208633 0.5 -0.131985 -0.876768
69 1 0.0744052 0.0756103 0.5 -0.447009 -0.636851
70 1 0.0229193 0.149343 0.5 -0.569609 -0.756053
71 1 0.0447793 0.263012 0.5 -0.424738 -0.781192
72 1 0.986051 0.152719 0.5 -0.319922 -0.900533
73 1 0.0892566 0.182667 0.5 -0.346183 -0.919127
74 1 0.999726 0.0928101 0.5 -0.536111 -0.766784
75 1 0.044362 0.215503 0.5 -0.363477 -0.772129
76 1 0.0464557 0.168732 0.5 -0.233408 -0.918552
77 1 0.0505629 0.0564625 0.5 -0.238942 -0.943979
78 1 0.0106727 0.126062 0.5 -0.314815 -0.766328
79 1 0.973267 0.174762 0.5 -0.184121 -0.893023
80 1 0.0875159 0.146835 0.5 -0.356543 -0.855567
81 1 0.0412444 0.236508 0.5 -0.413193 -0.843122
82 1 0.00733352 0.229023 0.5 -0.423651 -0.830225
83 1 0.0602352 0.230694 0.5 -0.364565 -0.716696
84 1 0.0577656 0.16525 0.5 -0.339218 -0.794908
85 1 0.017395 0.132887 0.5 -0.263449 -0.936209
86 1 0.101511 0.124162 0.5 -0.0306187 -0.897768
87 1 0.0198437 0.123098 0.5 -0.574488 -0.725964
88 1 0.0273292 0.0929203 0.5 -0.14868 -0.7999
89 1 0.0891784 0.218934 0.5 -0.420898 -0.857552
90 1 0.987919 0.233893 0.5 0.0374506 -0.758683
91 1 0.0317263 0.0518524 0.5 -0.0792509 -0.614456
92 1 0.990711 0.178694 0.5 -0.393363 -0.825353
93 1 0.0756579 0.066391 0.5 -0.400842 -0.768964
94 1 0.979734 0.13513 0.5 -0.0284878 -0.920817
95 1 0.00193059 0.248994 0.5 -0.0364644 -0.972347
96 1 0.0213596 0.204766 0.5 -0.183518 -0.907701
97 1 0.982074 0.217673 0.5 -0.543195 -0.795953
98 1 0.002841 0.0256301 0.5 -0.206975 -0.911042
99 1 0.111624 0.120924 0.5 -0.502148 -0.812036
100 1 0.0991208 0.215411 0.5 -0.277777 -0.904401
101 1 0.00541417 0.146005 0.5 -0.39383 -0.867006
102 1 0.0159627 0.0483938 0.5 -0.504823 -0.762025
103 1 0.105086 0.103679 0.5 -0.312664 -0.822806
104 1 0.0351738 0.266422 0.5 -0.537143 -0.688966
105 1 0.976207 0.155193 0.5 -0.492105 -0.791017
106 1 0.0157009 0.143086 0.5 -0.388989 -0.864629
107 1 0.999646 0.130374 0.5 -0.224785 -0.90136
108 1 0.0678721 0.198852 0.5 -0.597901 -0.784037
109 1 0.0587409 0.0168448 0.5 -0.373629 -0.877721
110 1 0.00341518 0.201104 0.5 -0.421571 -0.825134
111 1 0.0701004 0.050133 0.5 -0.321011 -0.913158
112 1 0.999606 0.174769 0.5 -0.405534 -0.845862
113 1 0.0368691 0.170845 0.5 -0.100273 -0.912587
114 1 0.0669997 0.24688 0.5 -0.28604 -0.927475
115 1 0.0130868 0.152274 0.5 -0.24629 -0.923638
116 1 0.0383758 0.161076 0.5 -0.355275 -0.896454
117 1 0.992145 0.2148 0.5 -0.262048 -0.902126
118 1 0.0542063 0.1297 0.5 -0.331222 -0.753538
119 1 0.0494061 0.112228 0.5 -0.409109 -0.839042
120 1 0.0719543 0.178959 0.5 0.104613 -0.983096
121 1 0.983249 0.125917 0.5 -0.180602 -0.88469
122 1 0.0557339 0.260181 0.5 -0.30446 -0.90729
123 1 0.015895 0.178753 0.5 -0.305442 -0.831012
124 1 0.0700179 0.142595 0.5 -0.397571 -0.871405
125 1 0.978051 0.0616055 0.5 -0.334356 -0.914855
126 1 0.0323876 0.0163664 0.5 -0.588066 -0.766705
127 1 0.056275 0.0360856 0.5 -0.146189 -0.906793
128 1 0.0534027 0.0457828 0.5 -0.209011 -0.854803
129 1 0.0854419 0.156818 0.5 -0.525727 -0.815539
130 1 0.0170119 0.262878 0.5 -0.666644 -0.668381
131 1 0.07895 0.223488 0.5 -0.360655 -0.787559
132 1 0.0402101 0.0223257 0.5 -0.554611 -0.752875
133 1 0.0577872 0.026558 0.5 -0.46163 -0.833689
134 1 0.0394281 0.0695917 0.5 -0.475435 -0.852797
135 1 0.0270056 0.173956 0.5 -0.209254 -0.850828
136 1 0.0204869 0.112618 0.5 -0.149284 -0.635402
137 1 0.0100097 0.0328982 0.5 -0.236668 -0.913731
138 1 0.064871 0.256911 0.5 -0.262801 -0.949942
139 1 0.0417564 0.0598097 0.5 -0.337602 -0.915587
140 1 0.990051 0.22474 0.5 -0.0618316 -0.946742
141 1 0.0628274 0.266521 0.5 -0.376078 -0.919702
142 1 0.0656282 0.0339364 0.5 -0.171815 -0.904733
143 1 0.0375484 0.256933 0.5 -0.336762 -0.853493
144 1 0.0702236 0.0962801 0.5 -0.537247 -0.823393
145 1 0.0725951 0.040522 0.5 -0.0747551 -0.986873
146 1 0.0446538 0.131197 0.5 -0.345786 -0.734403
147 1 0.0105061 0.208048 0.5 -0.278927 -0.90511
148 1 0.0622206 0.219391 0.5 -0.344202 -0.84848
149 1 0.990096 0.261596 0.5 -0.479457 -0.813145
150 1 0.0630405 0.089998 0.5 -0.317118 -0.820593
151 1 0.0853466 0.0642369 0.5 -0.27263 -0.791856
152 1 0.00165849 0.164769 0.5 -0.552323 -0.761218
153 1 0.035242 0.21951 0.5 -0.592613 -0.698166
154 1 0.0795803 0.0474624 0.5 -0.190755 -0.890892
155 1 0.0778264 0.102257 0.5 -0.454634 -0.82998
156 1 0.0295098 0.164779 0.5 -0.514669 -0.799922
157 1 0.017629 0.0388343 0.5 -0.370065 -0.793111
158 1 0.0269508 0.259267 0.5 -0.361297 -0.804781
159 1 0.974574 0.165092 0.5 -0.497075 -0.847229
160 1 0.0082235 0.0423835 0.5 -0.613237 -0.781845
161 1 0.00736763 0.0985597 0.5 -0.744656 -0.648149
162 1 0.988688 0.0487688 0.5 -0.417789 -0.835433
163 1 0.0570717 0.0740839 0.5 -0.322732 -0.870437
164 1 0.0535744 0.269963 0.5 -0.489146 -0.862324
165 1 0.060643 0.0538793 0.5 -0.128688 -0.919697
166 1 0.0175885 0.0845737 0.5 -0.43292 -0.689212
167 1 0.0942784 0.199557 0.5 -0.0472289 -0.964335
168 1 0.00684745 0.0528411 0.5 -0.296587 -0.823811
169 1 0.0995725 0.133254 0.5 -0.0757316 -0.972287
170 1 0.012897 0.023529 0.5 -0.0519575 -0.928771
171 1 0.0880662 0.0543563 0.5 -0.27591 -0.832363
172 1 0.00481736 0.191538 0.5 -0.493407 -0.829456
173 1 0.0592064 0.10926 0.5 -0.442196 -0.751651
174 1 0.0503294 0.102706 0.5 -0.587315 -0.77602
175 1 0.0169522 0.226136 0.5 -0.409817 -0.874536
176 1 0.983408 0.208093 0.5 -0.37099 -0.840139
177 1 0.0569662 0.24991 0.5 -0.159173 -0.925628
178 1 0.0284257 0.212813 0.5 -0.140165 -0.865753
179 1 0.0752919 0.204749 0.5 -0.277845 -0.828655
180 1 0.0912126 0.172734 0.5 -0.313168 -0.900598
181 1 0.0592902 0.0997561 0.5 -0.38175 -0.675774
182 1 0.024474 0.139417 0.5 -0.472333 -0.748795
183 1 0.991356 0.0392687 0.5 -0.269196 -0.942685
184 1 0.0897954 0.0898862 0.5 -0.378275 -0.837472
185 1 0.0287059 0.118971 0.5 -0.475907 -0.771386
186 1 0.997669 0.233222 0.5 0.0885178 -0.758228
187 1 0.0625728 0.0431065 0.5 -0.0159838 -0.954365
188 1 0.0847189 0.0737716 0.5 -0.322876 -0.819052
189 1 0.082451 0.128045 0.5 -0.114111 -0.788372
190 1 0.98014 0.264358 0.5 -0.454244 -0.772818
191 1 0.00179225 0.211549 0.5 -0.457096 -0.870222
192 1 0.0596535 0.240545 0.5 -0.365926 -0.764241
193 1 0.992103 0.122404 0.5 -0.0815059 -0.879063
194 1 0.0797701 0.138524 0.5 -0.232316 -0.866521
195 1 0.999369 0.258217 0.5 -0.152587 -0.916622
196 1 0.0476303 0.252239 0.5 -0.30454 -0.84844
197 1 0.0013123 0.08236 0.5 -0.465415 -0.856921
198 1 0.0871608 0.229655 0.5 -0.625474 -0.745591
199 1 0.00596195 0.108997 0.5 -0.297944 -0.791287
200 1 0.106076 0.1402 0.5 -0.126703 -0.791437
201 1 0.0255139 0.0444559 0.5 -0.0143637 -0.765854
202 1 0.0722878 0.132211 0.5 -0.542672 -0.794798
203 1 0.065879 0.20866 0.5 -0.290064 -0.865203
204 1 0.0163289 0.0944077 0.5 -0.38195 -0.695179
205 1 0.0407387 0.151766 0.5 -0.197114 -0.946962
206 1 0.0767593 0.195477 0.5 -0.482136 -0.854079
207 1 0.987932 0.188985 0.5 -0.330104 -0.880327
208 1 0.0548469 0.0834162 0.5 -0.219934 -0.943011
209 1 0.0469743 0.122208 0.5 -0.194114 -0.958974
210 1 0.0844623 0.250118 0.5 -0.613873 -0.715553
211 1 0.0564655 0.11906 0.5 -0.118183 -0.976917
212 1 0.99407 0.242069 0.5 0.109429 -0.847497
213 1 0.975289 0.202012 0.5 -0.546639 -0.783133
214 1 0.00680677 0.136081 0.5 -0.397656 -0.765725
215 1 0.0507431 0.232915 0.5 -0.188121 -0.854355
216 1 0.99047 0.132944 0.5 -0.0320333 -0.949167
217 1 0.983551 0.162008 0.5 -0.325051 -0.86214
218 1 0.033637 0.145073 0.5 -0.468321 -0.757198
219 1 0.00829899 0.267242 0.5 -0.29266 -0.55326
220 1 0.0211018 0.0297572 0.5 -0.307562 -0.770848
221 1 0.995144 0.149397 0.5 -0.431468 -0.841232
222 1 0.0725433 0.215478 0.5 -0.057559 -0.927502
223 1 0.0122044 0.245779 0.5 -0.0456154 -0.915925
224 1 0.986423 0.198317 0.5 -0.329435 -0.902182
225 1 0.0660888 0.0709807 0.5 -0.537112 -0.678743
226 1 0.0824438 0.260694 0.5 -0.581894 -0.709443
227 1 0.0281385 0.0834316 0.5 -0.41323 -0.683413
228 1 0.04861 0.0663635 0.5 -0.410545 -0.889502
229 1 0.0948689 0.116217 0.5 -0.128933 -0.800772
230 1 0.0506885 0.14864 0.5 -0.179205 -0.975031
231 1 0.0889382 0.0994061 0.5 -0.283739 -0.843352
232 1 0.104741 0.114689 0.5 -0.212273 -0.699053
233 1 0.977795 0.191332 0.5 -0.246184 -0.857313
234 1 0.997226 0.185454 0.5 -0.454294 -0.83076
235 1 0.0101329 0.0788698 0.5 -0.627794 -0.768238
236 1 0.970815 0.183962 0.5 -0.157176 -0.859082
237 1 0.0988495 0.179594 0.5 -0.203339 -0.965608
238 1 0.982816 0.172806 0.5 -0.324676 -0.789901
239 1 0.0618996 0.181591 0.5 -0.395352 -0.741207
240 1 0.0672486 0.162221 0.5 -0.252983 -0.905022
241 1 0.99396 0.20517 0.5 -0.431276 -0.866694
242 1 0.994957 0.112947 0.5 0.0244995 -0.958335
243 1 0.0502584 0.196257 0.5 -0.100972 -0.954737
244 1 0.00628883 0.181513 0.5 -0.228645 -0.897663
245 1 0.085382 0.1192 0.5 -0.276851 -0.799167
246 1 0.0393149 0.246125 0.5 -0.495354 -0.844123
247 1 0.996581 0.0551299 0.5 -0.201623 -0.895918
248 1 0.99938 0.222976 0.5 -0.296097 -0.751336
249 1 0.980034 0.182041 0.5 -0.00730506 -0.964368
250 1 0.997828 0.14021 0.5 -0.290625 -0.848054
251 1 0.0139795 0.0591424 0.5 -0.339768 -0.935019
252 1 0.992032 0.169231 0.5 -0.640683 -0.738604
253 1 0.0408623 0.105992 0.5 -0.54812 -0.814504
254 1 0.0410608 0.198712 0.5 -0.112821 -0.875651
255 1 0.0472385 0.076602 0.5 -0.319516 -0.916758
256 1 0.0310366 0.0630181 0.5 -0.431327 -0.805068
257 1 0.0308612 0.154499 0.5 -0.469738 -0.73641
258 1 0.0848831 0.201582 0.5 -0.117087 -0.907616
259 1 0.00292919 0.155192 0.5 -0.483455 -0.792548
260 1 0.00263869 0.0725016 0.5 -0.556333 -0.778236
261 1 0.0518722 0.0931513 0.5 -0.225886 -0.929371
262 1 0.0362592 0.089316 0.5 -0.358611 -0.836355
263 1 0.0315674 0.109801 0.5 -0.25094 -0.891851
264 1 0.00850588 0.0888746 0.5 -0.696037 -0.66569
265 1 0.0458126 0.0401741 0.5 -0.125888 -0.83224
266 1 0.984893 0.245272 0.5 -0.131293 -0.971294
267 1 0.0332965 0.18142 0.5 -0.0787115 -0.703611
268 1 0.0149711 0.236559 0.5 -0.337647 -0.875077
269 1 0.0438236 0.225144 0.5 -0.404533 -0.67384
270 1 0.0601842 0.193231 0.5 -0.493166 -0.795016
271 1 0.0907044 0.266484 0.5 -0.86763 -0.463894
272 1 0.965648 0.168654 0.5 -0.400376 -0.887786
273 1 0.0920318 0.080475 0.5 -0.359493 -0.849121
274 1 0.085696 0.109648 0.5 -0.375472 -0.767749
275 1 0.0718809 0.0864702 0.5 -0.522146 -0.824727
276 1 0.0190962 0.253599 0.5 -0.150324 -0.883051
277 1 0.00457452 0.239994 0.5 -0.11435 -0.921367
278 1 0.0421465 0.188516 0.5 -0.268378 -0.785401
279 1 0.0541173 0.175863 0.5 -0.476297 -0.73774
280 1 0.0578187 0.0629562 0.5 -0.240916 -0.856195
281 1 0.0436139 0.141399 0.5 -0.32168 -0.804882
282 1 0.980697 0.227676 0.5 -0.533016 -0.703878
283 1 0.023707 0.19442 0.5 -0.404085 -0.598269
284 1 0.079544 0.0924671 0.5 -0.371767 -0.817459
285 1 0.0294344 0.0352024 0.5 -0.115959 -0.797981
286 1 0.03065 0.20152 0.5 -0.0594305 -0.962228
287 1 0.99388 0.159328 0.5 -0.553194 -0.748866
288 1 0.0532522 0.186431 0.5 -0.29726 -0.716148
289 1 0.0684344 0.236485 0.5 -0.612215 -0.708517
290 1 0.0489235 0.0295956 0.5 -0.329565 -0.821378
291 1 0.00868913 0.256484 0.5 -0.108705 -0.785788
292 1 0.0820892 0.038094 0.5 -0.142048 -0.930664
293 1 0.0942648 0.070441 0.5 -0.454801 -0.790392
294 1 0.0350558 0.135585 0.5 -0.655157 -0.710705
295 1 0.0648558 0.171537 0.5 -0.0755898 -0.933236
296 1 0.0354493 0.276274 0.5 -0.2073 -0.62725
297 1 0.994491 0.0657032 0.5 -0.451181 -0.874329
298 1 0.0964159 0.189113 0.5 -0.271768 -0.956999
299 1 0.0190085 0.0750368 0.5 -0.244116 -0.825046
300 1 0.00382602 0.0625524 0.5 -0.327977 -0.850674
301 1 0.0248084 0.232347 0.5 -0.413222 -0.862622
302 1 0.0747438 0.0301413 0.5 -0.329768 -0.89174
303 1 0.990154 0.0960169 0.5 -0.256286 -0.926338
304 1 0.0493153 0.019941 0.5 -0.434194 -0.801539
305 1 0.0226724 0.242653 0.5 -0.159839 -0.93814
306 1 0.984974 0.115817 0.5 -0.0657979 -0.949367
307 1 0.0739324 0.122689 0.5 -0.343865 -0.839353
308 1 0.977908 0.23831 0.5 -0.271109 -0.838425
309 1 0.0956441 0.152804 0.5 -0.533337 -0.804149
310 1 0.0922021 0.126316 0.5 0.0372341 -0.956455
311 1 0.0234752 0.0203968 0.5 -0.513381 -0.774391
312 1 0.0698198 0.226874 0.5 -0.445334 -0.854603
313 1 0.0629727 0.125865 0.5 -0.334416 -0.662126
314 1 0.0244671 0.102915 0.5 0.145063 -0.924845
315 1 0.0451064 0.0864499 0.5 -0.224796 -0.969557
316 1 0.989404 0.271916 0.5 -0.365496 -0.764488
317 1 0.0998903 0.261456 0.5 -0.586523 -0.558266
318 1 0.0513057 0.00994118 0.5 -0.315947 -0.907038
319 1 0.0259891 0.269779 0.5 -0.520449 -0.752905
320 1 0.0826752 0.0828772 0.5 -0.106264 -0.963023
321 1 0.00263887 0.120853 0.5 -0.121678 -0.766448
322 1 0.997833 0.267778 0.5 -0.234495 -0.666903
323 1 0.0786221 0.186305 0.5 -0.167322 -0.877663
324 1 0.0184938 0.214705 0.5 -0.163057 -0.900406
325 1 0.00902462 0.171791 0.5 -0.214359 -0.946378
326 1 0.98783 0.105772 0.5 -0.0420635 -0.995103
327 1 0.982618 0.255142 0.5 -0.181624 -0.961682
328 1 0.976053 0.0720934 0.5 -0.340991 -0.925643
329 1 0.0263704 0.222738 0.5 -0.38829 -0.895087
330 1 0.0688716 0.106073 0.5 -0.608343 -0.739629
331 1 0.0427489 0.0965523 0.5 -0.308869 -0.897752
332 1 0.0292562 0.0738205 0.5 -0.346455 -0.721903
333 1 0.985735 0.0691047 0.5 -0.454391 -0.856382
334 1 0.0377319 0.0797798 0.5 -0.54039 -0.808217
335 1 0.0718917 0.263512 0.5 -0.257346 -0.866455
336 1 0.0364344 0.125448 0.5 -0.480895 -0.797657
337 1 0.998571 0.102652 0.5 -0.400536 -0.783036
338 1 0.0167386 0.493827 0.5 -0.0593016 -0.965226
339 1 0.0972072 0.45054 0.5 -0.280484 -0.807574
340 1 0.9973 0.499524 0.5 -0.511991 -0.705643
341 1 0.0288525 0.481761 0.5 -0.0543288 -0.942191
342 1 0.106628 0.409476 0.5 -0.199984 -0.953671
343 1 0.00917899 0.395015 0.5 -0.321158 -0.611804
344 1 0.0794045 0.362409 0.5 -0.558827 -0.761269
345 1 0.0627587 0.405211 0.5 -0.470842 -0.87089
346 1 0.066629 0.43203 0.5 -0.425353 -0.858371
347 1 0.97447 0.350226 0.5 -0.806072 -0.527279
348 1 0.107357 0.492314 0.5 -0.609539 -0.764224
349 1 0.998779 0.314896 0.5 -0.512789 -0.829485
350 1 0.023778 0.371569 0.5 -0.437159 -0.817368
351 1 0.0530008 0.408704 0.5 -0.319373 -0.914949
352 1 0.0259684 0.491377 0.5 -0.243499 -0.886975
353 1 0.0773751 0.419003 0.5 -0.109396 -0.949599
354 1 0.00566132 0.376269 0.5 0.0659268 -0.729458
355 1 0.0660462 0.479271 0.5 -0.205471 -0.934092
356 1 0.984877 0.292005 0.5 -0.379433 -0.914531
357 1 0.00895757 0.404787 0.5 -0.201543 -0.759078
358 1 0.0945495 0.292055 0.5 -0.521507 -0.814812
359 1 0.088167 0.416191 0.5 -0.236746 -0.911311
360 1 0.07127 0.355758 0.5 -0.299551 -0.791939
361 1 0.105323 0.326785 0.5 -0.487721 -0.814556
362 1 0.0898823 0.406251 0.5 -0.281677 -0.918284
363 1 0.0606105 0.321659 0.5 -0.33536 -0.839385
364 1 0.0642063 0.348835 0.5 -0.225545 -0.852051
365 1 0.0857531 0.379068 0.5 -0.259802 -0.880794
366 1 0.10368 0.466088 0.5 -0.20199 -0.936277
367 1 0.0150666 0.503502 0.5 -0.242268 -0.898089
368 1 0.0340501 0.461816 0.5 -0.32604 -0.910249
369 1 0.0488228 0.382126 0.5 -0.530953 -0.698383
370 1 0.0704687 0.366323 0.5 -0.753721 -0.587093
371 1 0.0261097 0.45421 0.5 -0.537066 -0.719452
372 1 0.00565882 0.276697 0.5 -0.0520838 -0.932477
373 1 0.0146843 0.328431 0.5 -0.534593 -0.805023
374 1 0.0477545 0.521032 0.5 -0.157284 -0.957322
375 1 0.0549951 0.398778 0.5 -0.182227 -0.932907
376 1 0.0819628 0.270167 0.5 -0.565815 -0.646789
377 1 0.0163963 0.364056 0.5 -0.380504 -0.860821
378 1 0.0194308 0.48461 0.5 0.0786729 -0.980605
379 1 0.0848284 0.305277 0.5 -0.103995 -0.623094
380 1 0.0371526 0.442496 0.5 -0.249123 -0.912851
381 1 0.093496 0.301494 0.5 -0.284482 -0.719955
382 1 0.0351178 0.321784 0.5 -0.337734 -0.897339
383 1 0.0614971 0.359963 0.5 -0.431399 -0.807671
384 1 0.00243644 0.435107 0.5 -0.160162 -0.885055
385 1 0.0872109 0.322403 0.5 0.0544618 -0.976682
386 1 0.996162 0.42796 0.5 0.0801398 -0.772023
387 1 0.0540205 0.315086 0.5 -0.29759 -0.929568
388 1 0.0485296 0.299239 0.5 -0.307815 -0.803626
389 1 0.0329274 0.415271 0.5 -0.234062 -0.913565
390 1 0.0576073 0.387887 0.5 -0.0953902 -0.798646
391 1 0.0268273 0.444808 0.5 -0.336039 -0.772644
392 1 0.0572189 0.435266 0.5 -0.5638 -0.73039
393 1 0.108764 0.400008 0.5 -0.276229 -0.92609
394 1 0.986827 0.327677 0.5 -0.0200634 -0.937961
395 1 0.0610919 0.276271 0.5 -0.570664 -0.816432
396 1 0.0918988 0.479403 0.5 -0.508332 -0.781952
397 1 0.0439752 0.412231 0.5 -0.187551 -0.924854
398 1 0.0710982 0.317906 0.5 -0.138142 -0.891777
399 1 0.112455 0.426374 0.5 -0.148242 -0.956199
400 1 0.051865 0.547234 0.5 -0.183301 -0.881153
401 1 0.999286 0.45459 0.5 -0.354476 -0.668073
402 1 0.0120047 0.292755 0.5 -0.503396 -0.767242
403 1 0.0506461 0.419291 0.5 -0.356348 -0.890813
404 1 0.071901 0.448603 0.5 -0.123973 -0.981613
405 1 0.0163258 0.272763 0.5 -0.454305 -0.77838
406 1 0.0769852 0.465933 0.5 -0.512797 -0.809735
407 1 0.0569212 0.518954 0.5 -0.0356367 -0.966521
408 1 0.0670426 0.38619 0.5 -0.0101163 -0.92936
409 1 0.00651455 0.414135 0.5 -0.205205 -0.853378
410 1 0.0784517 0.455024 0.5 -0.114553 -0.911247
411 1 0.0128382 0.338155 0.5 -0.520869 -0.804625
412 1 0.0921178 0.396403 0.5 -0.440233 -0.870474
413 1 0.0513503 0.466029 0.5 -0.0887994 -0.975389
414 1 0.0380531 0.524568 0.5 -0.300066 -0.936449
415 1 0.00145744 0.350616 0.5 -0.531737 -0.8282
416 1 0.0137414 0.513181 0.5 0.195822 -0.726381
417 1 0.00330152 0.341275 0.5 -0.485509 -0.866296
418 1 0.0602755 0.369527 0.5 -0.490651 -0.650002
419 1 0.988096 0.419881 0.5 -0.228204 -0.87004
420 1 0.108488 0.530144 0.5 -0.206792 -0.530869
421 1 0.993665 0.288762 0.5 -0.337824 -0.912912
422 1 0.044492 0.273351 0.5 -0.539066 -0.749376
423 1 0.991913 0.483651 0.5 -0.419559 -0.876681
424 1 0.0562048 0.34324 0.5 -0.362536 -0.827904
425 1 0.986344 0.429532 0.5 0.146445 -0.759393
426 1 0.0864732 0.462709 0.5 -0.350563 -0.909736
427 1 0.0157858 0.411387 0.5 -0.217102 -0.947677
428 1 0.0998656 0.439932 0.5 -0.139307 -0.979184
429 1 0.0816968 0.352874 0.5 -0.43068 -0.795172
430 1 0.991476 0.43774 0.5 0.158082 -0.716674
431 1 0.0184774 0.391346 0.5 -0.0987986 -0.635536
432 1 0.0251979 0.324459 0.5 -0.370191 -0.880945
433 1 0.0333873 0.508561 0.5 -0.320854 -0.782903
434 1 0.99214 0.29881 0.5 -0.448466 -0.855214
435 1 0.0954747 0.422155 0.5 -0.121145 -0.924689
436 1 0.983261 0.301436 0.5 -0.381511 -0.91148
437 1 0.00996511 0.486721 0.5 -0.0723532 -0.929691
438 1 0.0804703 0.315245 0.5 0.25346 -0.921204
439 1 0.97878 0.423054 0.5 -0.36118 -0.850077
440 1 0.0437823 0.318199 0.5 -0.439365 -0.858241
441 1 0.0412958 0.375201 0.5 -0.409642 -0.906036
442 1 0.0604051 0.415275 0.5 -0.503946 -0.835606
443 1 0.0484464 0.39162 0.5 -0.415655 -0.699966
444 1 0.0943155 0.329809 0.5 -0.276882 -0.70028
445 1 0.0295702 0.43482 0.5 -0.120498 -0.9713
446 1 0.0829139 0.399227 0.5 -0.201982 -0.935735
447 1 0.0634722 0.489336 0.5 -0.113985 -0.968147
448 1 0.997413 0.41844 0.5 -0.305815 -0.751309
449 1 0.0216351 0.428166 0.5 -0.397036 -0.903913
450 1 0.0982928 0.496102 0.5 -0.619202 -0.750321
451 1 0.0746876 0.523024 0.5 -0.263011 -0.744413
452 1 0.984317 0.346171 0.5 -0.374154 -0.59631
453 1 0.00685369 0.366997 0.5 -0.261387 -0.903446
454 1 0.0071507 0.460574 0.5 -0.150054 -0.864051
455 1 0.0726371 0.486667 0.5 -0.240517 -0.847894
456 1 0.0735884 0.307976 0.5 -0.328627 -0.828737
457 1 0.0829465 0.435575 0.5 -0.430359 -0.86823
458 1 0.125145 0.413593 0.5 -0.394715 -0.812668
459 1 0.100891 0.392714 0.5 -0.379585 -0.870908
460 1 0.0758132 0.476119 0.5 -0.382412 -0.817575
461 1 0.0787821 0.372349 0.5 -0.55654 -0.734335
462 1 0.0499663 0.2893 0.5 -0.45707 -0.867005
463 1 0.982266 0.440212 0.5 -0.0244537 -0.938895
464 1 0.0936717 0.386599 0.5 -0.399896 -0.900319
465 1 0.992802 0.519825 0.5 -0.143107 -0.851979
466 1 0.0973998 0.412691 0.5 -0.395633 -0.911584
467 1 0.102455 0.429549 0.5 -0.00672864 -0.975943
468 1 0.999476 0.396258 0.5 -0.20984 -0.668801
469 1 0.0791927 0.503434 0.5 -0.376233 -0.838717
470 1 0.98818 0.457228 0.5 -0.235848 -0.883322
471 1 0.990194 0.493167 0.5 -0.368484 -0.923783
472 1 0.108927 0.436835 0.5 -0.168088 -0.89367
473 1 0.0887157 0.499584 0.5 -0.508039 -0.823811
474 1 0.99274 0.388858 0.5 -0.344803 -0.776648
475 1 0.0360435 0.488038 0.5 -0.23371 -0.953164
476 1 0.0314935 0.284882 0.5 -0.251746 -0.61663
477 1 0.0304469 0.294878 0.5 -0.405954 -0.856373
478 1 0.0030588 0.28613 0.5 -0.2107 -0.903811
479 1 0.0108198 0.347422 0.5 -0.492747 -0.849281
480 1 0.994148 0.473818 0.5 -0.612793 -0.71792
481 1 0.0254042 0.408352 0.5 -0.130362 -0.950415
482 1 0.988047 0.372818 0.5 -0.0246323 -0.942701
483 1 0.0970953 0.505599 0.5 -0.609397 -0.761902
484 1 0.0591245 0.509361 0.5 -0.232526 -0.823781
485 1 0.0634482 0.535844 0.5 -0.251092 -0.85842
486 1 0.0561025 0.304979 0.5 -0.317467 -0.911114
487 1 0.0673173 0.292684 0.5 -0.528916 -0.823738
488 1 0.0424013 0.283235 0.5 -0.134371 -0.898319
489 1 0.0584266 0.472849 0.5 -0.250547 -0.945017
490 1 0.0561642 0.482289 0.5 -0.0125865 -0.9773
491 1 0.0380566 0.349419 0.5 0.1058 -0.859178
492 1 0.0233261 0.279345 0.5 -0.428048 -0.723873
493 1 0.035865 0.359083 0.5 0.161431 -0.878515
494 1 0.0907617 0.44263 0.5 -0.197125 -0.860694
495 1 0.0603005 0.46316 0.5 -0.447821 -0.807395
496 1 0.10695 0.31724 0.5 -0.431281 -0.848835
497 1 0.0878188 0.453112 0.5 -0.111931 -0.905817
498 1 0.0830048 0.483413 0.5 -0.449977 -0.823795
499 1 0.985077 0.383035 0.5 -0.487297 -0.783522
500 1 0.104762 0.419478 0.5 -0.211549 -0.963082
501 1 0.00744184 0.496094 0.5 -0.188682 -0.954885
502 1 0.994885 0.379486 0.5 -0.0807011 -0.957711
503 1 0.0754512 0.393167 0.5 -0.219815 -0.821045
504 1 0.0646005 0.441484 0.5 -0.298727 -0.860695
505 1 0.0456661 0.400994 0.5 -0.192982 -0.910359
506 1 0.111331 0.390149 0.5 -0.273725 -0.924176
507 1 0.0104205 0.441308 0.5 -0.438226 -0.837026
508 1 0.09952 0.402496 0.5 -0.371008 -0.885004
509 1 0.0186333 0.353311 0.5 -0.310831 -0.853559
510 1 0.0435088 0.458265 0.5 -0.248563 -0.87528
511 1 0.079758 0.279201 0.5 -0.46174 -0.793534
512 1 0.0422784 0.504687 0.5 -0.526549 -0.828747
513 1 0.0354398 0.4518 0.5 -0.43073 -0.862962
514 1 0.995934 0.335061 0.5 -0.334312 -0.807358
515 1 0.0517364 0.279839 0.5 -0.483216 -0.869136
516 1 0.0280167 0.305162 0.5 -0.424295 -0.850001
517 1 0.00439336 0.51507 0.5 -0.0706778 -0.565714
518 1 0.0450793 0.356553 0.5 -0.296549 -0.920391
519 1 0.996174 0.27882 0.5 -0.124329 -0.93054
520 1 0.0545296 0.352918 0.5 -0.436456 -0.8604
521 1 0.991103 0.400296 0.5 -0.677544 -0.651175
522 1 0.0584299 0.425916 0.5 -0.651893 -0.736024
523 1 0.0388603 0.478132 0.5 -0.0813878 -0.971515
524 1 0.0963584 0.45994 0.5 -0.452144 -0.831507
525 1 0.0597161 0.286257 0.5 -0.513579 -0.834977
526 1 0.0116652 0.43123 0.5 -0.385708 -0.842724
527 1 0.105261 0.456584 0.5 -0.677242 -0.720185
528 1 0.00497043 0.424397 0.5 -0.355805 -0.877047
529 1 0.0809465 0.492972 0.5 -0.463417 -0.868963
530 1 0.0771772 0.325811 0.5 -0.193293 -0.829021
531 1 0.0845679 0.472119 0.5 -0.454931 -0.832326
532 1 0.126732 0.402641 0.5 -0.701381 -0.690367
533 1 0.0747163 0.346498 0.5 -0.233323 -0.765404
534 1 0.00025214 0.490065 0.5 -0.30777 -0.900444
535 1 0.049067 0.475217 0.5 0.00248193 -0.968533
536 1 0.991187 0.363917 0.5 -0.222473 -0.856768
537 1 0.0234082 0.51049 0.5 -0.042032 -0.879267
538 1 0.0911069 0.489671 0.5 -0.509931 -0.796496
539 1 0.0342878 0.49755 0.5 -0.454964 -0.803483
540 1 0.00412526 0.46991 0.5 -0.333771 -0.77012
541 1 0.0533776 0.456562 0.5 -0.321943 -0.757609
542 1 0.0904128 0.348206 0.5 -0.105543 -0.635062
543 1 0.00823658 0.451072 0.5 -0.409173 -0.832024
544 1 0.0525062 0.362616 0.5 -0.324914 -0.934742
545 1 0.989604 0.447446 0.5 -0.473415 -0.825816
546 1 0.0213471 0.34389 0.5 -0.441633 -0.822278
547 1 0.0162868 0.318007 0.5 -0.497673 -0.812572
548 1 0.0688956 0.282438 0.5 -0.641923 -0.708077
549 1 0.0947033 0.339138 0.5 -0.127028 -0.593582
550 1 0.0933381 0.52585 0.5 0.00623987 -0.910822
551 1 0.100893 0.476174 0.5 -0.348619 -0.862697
552 1 0.0890429 0.359124 0.5 -0.422948 -0.828538
553 1 0.986657 0.28232 0.5 -0.157625 -0.929023
554 1 0.0220584 0.473945 0.5 -0.197929 -0.887217
555 1 0.0657347 0.302354 0.5 -0.502688 -0.785985
556 1 0.0413429 0.422522 0.5 -0.149554 -0.965185
557 1 0.119713 0.433377 0.5 -0.346162 -0.777654
558 1 0.0487072 0.42994 0.5 -0.405677 -0.765297
559 1 0.04538 0.530657 0.5 -0.436711 -0.857642
560 1 0.0747631 0.298118 0.5 -0.417973 -0.683131
561 1 0.0305982 0.340648 0.5 -0.103228 -0.903735
562 1 0.106741 0.447036 0.5 -0.476478 -0.811458
563 1 0.0244591 0.464348 0.5 -0.304663 -0.920745
564 1 0.0940838 0.469123 0.5 -0.221234 -0.9571
565 1 0.0471494 0.439487 0.5 -0.343534 -0.905175
566 1 0.00544134 0.505513 0.5 -0.452288 -0.748621
567 1 0.0686177 0.329331 0.5 -0.423652 -0.874474
568 1 0.0844652 0.332379 0.5 -0.434815 -0.780529
569 1 0.116891 0.442824 0.5 -0.450117 -0.75822
570 1 0.996356 0.50996 0.5 -0.576934 -0.543281
571 1 0.045494 0.485183 0.5 -0.0490574 -0.949188
572 1 0.0432334 0.365715 0.5 -0.301722 -0.938496
573 1 0.0362137 0.404325 0.5 -0.3359 -0.803228
574 1 0.102752 0.298344 0.5 -0.0630036 -0.866034
575 1 0.045088 0.308076 0.5 -0.338673 -0.785703
576 1 0.00476315 0.331533 0.5 -0.515129 -0.843153
577 1 0.0498412 0.511249 0.5 -0.149916 -0.933072
578 1 0.0491498 0.335884 0.5 -0.142185 -0.953667
579 1 0.991082 0.308546 0.5 -0.351989 -0.878639
580 1 0.0231482 0.418045 0.5 -0.432823 -0.857928
581 1 0.0724416 0.532491 0.5 -0.57841 -0.766802
582 1 0.0196195 0.437385 0.5 -0.394975 -0.823607
583 1 0.0230188 0.334163 0.5 -0.482003 -0.82351
584 1 0.99983 0.444284 0.5 -0.403038 -0.805129
585 1 0.0995579 0.533083 0.5 -0.122703 -0.933899
586 1 0.113627 0.380406 0.5 -0.48735 -0.761428
587 1 0.0326519 0.331294 0.5 -0.155564 -0.976142
588 1 0.00231908 0.480764 0.5 -0.380687 -0.896984
589 1 0.979837 0.413527 0.5 -0.521178 -0.826005
590 1 0.0405928 0.514506 0.5 -0.359604 -0.917348
591 1 0.96766 0.426794 0.5 -0.0627505 -0.934489
592 1 0.0332497 0.368302 0.5 -0.183871 -0.955907
593 1 0.999998 0.305498 0.5 -0.504157 -0.837542
594 1 0.0957653 0.376938 0.5 -0.257044 -0.923287
595 1 0.0857452 0.295654 0.5 -0.497797 -0.764118
596 1 0.00195223 0.386733 0.5 0.146429 -0.959894
597 1 0.0141894 0.421803 0.5 -0.31144 -0.894642
598 1 0.0168658 0.458266 0.5 -0.329273 -0.833929
599 1 0.0191216 0.522077 0.5 0.0574486 -0.578966
600 1 0.0901376 0.313074 0.5 0.131941 -0.845061
601 1 0.0852404 0.425549 0.5 -0.173421 -0.947402
602 1 0.0845139 0.389615 0.5 -0.464389 -0.855577
603 1 0.0135074 0.283219 0.5 -0.465875 -0.75217
604 1 0.117696 0.406899 0.5 -0.385252 -0.787935
605 1 0.0303992 0.517771 0.5 -0.171255 -0.937601
606 1 0.0399724 0.292344 0.5 -0.253231 -0.940799
607 1 0.988868 0.318607 0.5 -0.142575 -0.893828
608 1 0.0187663 0.401127 0.5 -0.274526 -0.628203
609 1 0.064243 0.526457 0.5 -0.173568 -0.802495
610 1 0.981577 0.310803 0.5 -0.146519 -0.91649
611 1 0.038267 0.394947 0.5 -0.617669 -0.711565
612 1 0.0245573 0.500977 0.5 -0.421566 -0.864442
613 1 0.102956 0.383077 0.5 -0.343625 -0.912133