ITEM: TIMESTEP
0
ITEM: NUMBER OF ATOMS
10945
ITEM: BOX BOUNDS pp pp pp
-5.8359999999999999e+01 5.8359999999999999e+01
-5.8359999999999999e+01 5.8359999999999999e+01
-5.0000000000000000e-01 5.0000000000000000e-01
ITEM: ATOMS id type xs ys zs c_002[1] c_002[2]
1 1 0.0589608 0.154047 0.5 -0.425615 -0.811514
2 1 0.0541639 0.137542 0.5 -0.168406 -0.941789
3 1 0.0797363 0.0546664 0.5 -0.287137 -0.880703
4 1 0.0170529 0.186104 0.5 -0.243558 -0.880305
5 1 0.0792088 0.148778 0.5 -0.181873 -0.883602
6 1 0.0702264 0.187722 0.5 -0.377534 -0.709229
7 1 0.0342697 0.236835 0.5 -0.297345 -0.745685
8 1 0.0756037 0.167926 0.5 -0.513557 -0.756591
9 1 0.077884 0.110361 0.5 -0.245846 -0.949982
10 1 0.985986 0.0756485 0.5 -0.291827 -0.940099
11 1 0.027575 0.0535979 0.5 -0.32578 -0.831181
12 1 0.0355047 0.226692 0.5 -0.723951 -0.640257
13 1 0.0241463 0.0636638 0.5 -0.336216 -0.831154
14 1 0.0682223 0.114031 0.5 -0.352254 -0.895779
15 1 0.0352757 0.0976985 0.5 0.0697413 -0.857644
16 1 0.0311572 0.246276 0.5 0.00517786 -0.955781
17 1 0.994927 0.0723162 0.5 -0.348139 -0.90649
18 1 0.0686729 0.0205181 0.5 -0.210005 -0.890308
19 1 0.029171 0.126584 0.5 -0.509024 -0.670038
20 1 0.00277556 0.0432381 0.5 -0.443201 -0.55374
21 1 0.0949928 0.161036 0.5 -0.573257 -0.72752
22 1 0.0830839 0.174913 0.5 -0.475954 -0.841186
23 1 0.10041 0.0837022 0.5 -0.277813 -0.940806
24 1 0.0211433 0.16655 0.5 -0.430509 -0.885817
25 1 0.095804 0.104067 0.5 -0.34627 -0.81991
26 1 0.0271738 0.18287 0.5 -0.311868 -0.873153
27 1 0.0397247 0.112953 0.5 -0.291792 -0.808567
28 1 0.0751824 0.250185 0.5 -0.417475 -0.873084
29 1 0.0812619 0.229912 0.5 -0.104385 -0.719455
30 1 0.0315958 0.0234567 0.5 -0.37308 -0.828895
31 1 0.0500935 0.157886 0.5 -0.634456 -0.754864
32 1 0.0764112 0.158092 0.5 -0.317403 -0.865472
33 1 0.059629 0.200802 0.5 -0.106935 -0.956881
34 1 0.0350748 0.190487 0.5 -0.230896 -0.748428
35 1 0.0964684 0.140773 0.5 -0.660719 -0.454762
36 1 0.0844872 0.210868 0.5 -0.793053 -0.488769
37 1 0.0391294 0.0299678 0.5 -0.0608483 -0.923533
38 1 0.0231868 0.156703 0.5 -0.491946 -0.820225
39 1 0.994419 0.248421 0.5 -0.0606136 -0.889452
40 1 0.0635924 0.133943 0.5 -0.316963 -0.933281
41 1 0.0889926 0.13454 0.5 -0.331173 -0.810818
42 1 0.0496692 0.240861 0.5 -0.303058 -0.775403
43 1 0.088631 0.236028 0.5 -0.0381145 -0.94503
44 1 0.0372723 0.0392563 0.5 -0.414209 -0.715691
45 1 0.0137045 0.196203 0.5 -0.333005 -0.871109
46 1 0.0139367 0.11285 0.5 -0.420057 -0.898884
47 1 0.99669 0.193069 0.5 -0.144256 -0.970433
48 1 0.0853243 0.165384 0.5 -0.546065 -0.726399
49 1 0.0455581 0.0469267 0.5 -0.31004 -0.944257
50 1 0.993301 0.0826585 0.5 -0.388993 -0.822093
51 1 0.990188 0.140215 0.5 -0.385515 -0.868499
52 1 0.056798 0.210588 0.5 0.131758 -0.985174
53 1 0.0699742 0.0575453 0.5 -0.183216 -0.968364
54 1 0.0660444 0.077095 0.5 -0.637658 -0.70257
55 1 0.0882434 0.191279 0.5 -0.178713 -0.888394
56 1 0.0961488 0.243437 0.5 -0.0895014 -0.872929
57 1 0.0457587 0.17678 0.5 -0.141298 -0.93764
58 1 0.00181954 0.0328198 0.5 -0.599311 -0.551214
59 1 0.0147157 0.067955 0.5 -0.155363 -0.703677
60 1 0.00970399 0.215783 0.5 -0.237715 -0.898613
61 1 0.0500797 0.203574 0.5 0.0562356 -0.980261
62 1 0.0616121 0.144484 0.5 -0.2026 -0.959235
63 1 0.0772056 0.239292 0.5 -0.312348 -0.72753
64 1 0.013966 0.159783 0.5 -0.528341 -0.73767
65 1 0.0689625 0.151301 0.5 -0.217307 -0.946354
66 1 0.0541209 0.221002 0.5 -0.0711419 -0.860775
67 1 0.0158368 0.10342 0.5 -0.249283 -0.909727
68 1 0.0382838 0.206609 0.5 -0.0903784 -0.813904
69 1 0.075074 0.0737038 0.5 -0.552946 -0.755837
70 1 0.0242282 0.145361 0.5 -0.179029 -0.782079
71 1 0.0461417 0.259621 0.5 -0.17007 -0.846583
72 1 0.989026 0.149561 0.5 -0.375315 -0.866169
73 1 0.0909155 0.180718 0.5 -0.29755 -0.894289
74 1 0.0019539 0.0899509 0.5 -0.496094 -0.835975
75 1 0.0468989 0.212765 0.5 0.0194505 -0.885019
76 1 0.0487496 0.167575 0.5 -0.144772 -0.907755
77 1 0.0529722 0.0537133 0.5 -0.276278 -0.951968
78 1 0.0120764 0.122229 0.5 -0.520674 -0.760243
79 1 0.974336 0.171834 0.5 -0.31622 -0.828615
80 1 0.0884892 0.146043 0.5 -0.506206 -0.574266
81 1 0.0427143 0.232659 0.5 -0.228794 -0.736981
82 1 0.00813617 0.225097 0.5 -0.290083 -0.790061
83 1 0.0619992 0.22776 0.5 -0.458007 -0.870247
84 1 0.0580829 0.164657 0.5 -0.428709 -0.839948
85 1 0.0193149 0.128728 0.5 -0.205144 -0.929202
86 1 0.101393 0.121528 0.5 -0.0303784 -0.920385
87 1 0.0213681 0.119523 0.5 -0.32493 -0.93297
88 1 0.0284923 0.0895198 0.5 -0.0384695 -0.931108
89 1 0.0939469 0.217495 0.5 -0.329014 -0.752108
90 1 0.98842 0.231574 0.5 -0.561956 -0.767599
91 1 0.0362222 0.0502148 0.5 -0.579573 -0.794874
92 1 0.991024 0.176994 0.5 -0.229344 -0.932287
93 1 0.0768887 0.0643016 0.5 -0.288794 -0.853199
94 1 0.982762 0.133337 0.5 -0.0673772 -0.974882
95 1 0.00420805 0.245923 0.5 -0.233347 -0.903216
96 1 0.0211549 0.20216 0.5 -0.148051 -0.876512
97 1 0.982975 0.215327 0.5 -0.360354 -0.865487
98 1 0.00409999 0.0233898 0.5 -0.409657 -0.895591
99 1 0.111397 0.1185 0.5 -0.317554 -0.879253
100 1 0.103325 0.21531 0.5 -0.171077 -0.937235
101 1 0.00795703 0.143168 0.5 -0.475916 -0.8555
102 1 0.0195206 0.0475708 0.5 -0.260576 -0.885097
103 1 0.107156 0.100499 0.5 -0.425036 -0.74926
104 1 0.0367829 0.263978 0.5 -0.21042 -0.868155
105 1 0.979254 0.152812 0.5 -0.121532 -0.743434
106 1 0.0168075 0.139371 0.5 -0.326337 -0.869123
107 1 0.00232387 0.127326 0.5 -0.621576 -0.677379
108 1 0.0696762 0.197382 0.5 -0.346907 -0.660741
109 1 0.0613696 0.0144697 0.5 -0.427545 -0.836277
110 1 0.00374446 0.20034 0.5 -0.332902 -0.80452
111 1 0.0726218 0.048203 0.5 -0.069547 -0.980558
112 1 0.000646111 0.173909 0.5 -0.370248 -0.900097
113 1 0.0379505 0.170263 0.5 -0.0287947 -0.945732
114 1 0.0670745 0.24398 0.5 -0.542135 -0.806141
115 1 0.0152967 0.149121 0.5 -0.625986 -0.691276
116 1 0.040901 0.161184 0.5 -0.234749 -0.792234
117 1 0.992302 0.212124 0.5 -0.20165 -0.929713
118 1 0.0565996 0.12735 0.5 -0.333562 -0.924553
119 1 0.0491653 0.111078 0.5 -0.300862 -0.568473
120 1 0.074265 0.17802 0.5 -0.287296 -0.815659
121 1 0.985556 0.123965 0.5 -0.164671 -0.90978
122 1 0.0563029 0.257894 0.5 -0.272937 -0.727113
123 1 0.0191655 0.176757 0.5 -0.488595 -0.831446
124 1 0.0711766 0.141163 0.5 -0.369212 -0.903744
125 1 0.979201 0.0582839 0.5 -0.449004 -0.690335
126 1 0.0338829 0.0140061 0.5 -0.523962 -0.785078
127 1 0.0570333 0.0343573 0.5 -0.320843 -0.930393
128 1 0.0551687 0.0438998 0.5 -0.198954 -0.944016
129 1 0.0861616 0.155386 0.5 -0.454192 -0.758425
130 1 0.0189974 0.259636 0.5 -0.142876 -0.901354
131 1 0.0846961 0.220245 0.5 -0.321439 -0.588846
132 1 0.042458 0.0208746 0.5 -0.0968061 -0.856954
133 1 0.0591614 0.0246988 0.5 -0.336769 -0.905
134 1 0.0419247 0.0663427 0.5 -0.519005 -0.812807
135 1 0.0285464 0.172487 0.5 -0.373224 -0.835506
136 1 0.022861 0.109952 0.5 -0.311701 -0.927048
137 1 0.0116195 0.0294828 0.5 -0.42621 -0.759768
138 1 0.0653623 0.253558 0.5 -0.654042 -0.673363
139 1 0.0433762 0.0563459 0.5 -0.404821 -0.870612
140 1 0.990366 0.221683 0.5 -0.394707 -0.900681
141 1 0.0648861 0.263493 0.5 -0.54115 -0.529078
142 1 0.0663545 0.031763 0.5 -0.461544 -0.789624
143 1 0.0388335 0.253557 0.5 -0.261862 -0.933826
144 1 0.0731225 0.0943825 0.5 -0.483486 -0.742708
145 1 0.0752441 0.038948 0.5 -0.454142 -0.638487
146 1 0.0477748 0.130739 0.5 0.000843317 -0.840662
147 1 0.0119864 0.205851 0.5 -0.443117 -0.749954
148 1 0.0635224 0.217897 0.5 -0.185355 -0.914041
149 1 0.990327 0.257826 0.5 -0.376414 -0.619881
150 1 0.0652017 0.0880472 0.5 -0.563544 -0.695062
151 1 0.0880508 0.0605999 0.5 -0.496409 -0.807701
152 1 0.0031613 0.164798 0.5 -0.28784 -0.769561
153 1 0.0363425 0.216046 0.5 -0.623308 -0.714148
154 1 0.0821899 0.0454597 0.5 -0.480504 -0.726501
155 1 0.0804352 0.100328 0.5 -0.416966 -0.752333
156 1 0.0308533 0.162729 0.5 -0.240361 -0.822238
157 1 0.0213564 0.0374536 0.5 -0.527662 -0.611257
158 1 0.0282853 0.256065 0.5 -0.154608 -0.926279
159 1 0.974823 0.16164 0.5 -0.165067 -0.675281
160 1 0.0115025 0.0397471 0.5 -0.509616 -0.678713
161 1 0.00941547 0.0962789 0.5 -0.282098 -0.884371
162 1 0.992325 0.046366 0.5 -0.290057 -0.799895
163 1 0.0591304 0.0706749 0.5 -0.387904 -0.886122
164 1 0.0534275 0.266967 0.5 -0.385914 -0.73131
165 1 0.0621052 0.0507858 0.5 -0.140047 -0.916588
166 1 0.0209922 0.0832974 0.5 -0.434902 -0.848727
167 1 0.0962511 0.197276 0.5 -0.337422 -0.834673
168 1 0.0101503 0.0498195 0.5 -0.193345 -0.926804
169 1 0.0991472 0.130815 0.5 -0.191605 -0.930987
170 1 0.0136782 0.020098 0.5 -0.133477 -0.923044
171 1 0.0901099 0.0506624 0.5 -0.583631 -0.727794
172 1 0.00663371 0.18959 0.5 -0.310074 -0.929637
173 1 0.0600553 0.105991 0.5 -0.273746 -0.815629
174 1 0.0524161 0.099992 0.5 -0.228364 -0.831676
175 1 0.0178067 0.223749 0.5 -0.294851 -0.818557
176 1 0.984793 0.206008 0.5 -0.426463 -0.888741
177 1 0.057948 0.247042 0.5 -0.538926 -0.82514
178 1 0.0275436 0.209678 0.5 -0.316943 -0.619679
179 1 0.075497 0.205061 0.5 -0.383892 -0.690281
180 1 0.09312 0.170842 0.5 -0.383883 -0.848167
181 1 0.0630005 0.097325 0.5 -0.0847126 -0.959306
182 1 0.0272859 0.136523 0.5 -0.0997673 -0.928648
183 1 0.992822 0.0369981 0.5 -0.616381 -0.626486
184 1 0.090913 0.0868393 0.5 -0.131294 -0.971632
185 1 0.0303278 0.116525 0.5 -0.579068 -0.781941
186 1 0.99865 0.228502 0.5 -0.413885 -0.856489
187 1 0.0653093 0.0416597 0.5 -0.137486 -0.888106
188 1 0.0857317 0.0700005 0.5 -0.508775 -0.789391
189 1 0.0824478 0.127411 0.5 -0.102506 -0.901627
190 1 0.98128 0.261848 0.5 -0.669135 -0.661441
191 1 0.00232678 0.210091 0.5 -0.26103 -0.830625
192 1 0.0595781 0.237607 0.5 -0.388416 -0.904895
193 1 0.994584 0.120858 0.5 -0.418502 -0.853715
194 1 0.0798972 0.137597 0.5 -0.367344 -0.834806
195 1 0.00157871 0.255186 0.5 -0.147336 -0.940244
196 1 0.0489732 0.250504 0.5 -0.375565 -0.790373
197 1 0.00304293 0.0796336 0.5 -0.389297 -0.871386
198 1 0.0917044 0.227113 0.5 0.0525558 -0.979557
199 1 0.0063722 0.106749 0.5 -0.24421 -0.88075
200 1 0.106737 0.136897 0.5 -0.324521 -0.796098
201 1 0.0287269 0.0440294 0.5 -0.682354 -0.635519
202 1 0.0729537 0.130809 0.5 -0.259086 -0.942319
203 1 0.0664253 0.20816 0.5 -0.0505326 -0.944286
204 1 0.0184804 0.0930318 0.5 -0.329774 -0.923736
205 1 0.0415511 0.151045 0.5 -0.390882 -0.808008
206 1 0.0780828 0.193216 0.5 -0.170526 -0.754397
207 1 0.989468 0.186325 0.5 -0.147775 -0.951931
208 1 0.0566576 0.0814189 0.5 -0.419872 -0.762399
209 1 0.0493539 0.120496 0.5 -0.412382 -0.679279
210 1 0.0861509 0.247349 0.5 -0.168712 -0.869364
211 1 0.0585004 0.117014 0.5 -0.502868 -0.778808
212 1 0.996505 0.237932 0.5 -0.282976 -0.872353
213 1 0.977711 0.199143 0.5 -0.348499 -0.900501
214 1 0.0103196 0.132426 0.5 -0.508439 -0.728633
215 1 0.0527273 0.231393 0.5 -0.0658019 -0.846852
216 1 0.992746 0.130754 0.5 -0.267533 -0.929218
217 1 0.986569 0.15959 0.5 0.0764633 -0.947741
218 1 0.0342832 0.14386 0.5 0.173828 -0.937088
219 1 0.00937007 0.261512 0.5 -0.0919534 -0.917832
220 1 0.0212479 0.0273294 0.5 -0.434352 -0.673038
221 1 0.998405 0.146374 0.5 -0.288391 -0.896684
222 1 0.0747839 0.214932 0.5 -0.450487 -0.602152
223 1 0.0129998 0.242319 0.5 -0.253931 -0.771359
224 1 0.986556 0.195582 0.5 -0.177355 -0.907099
225 1 0.0678934 0.066876 0.5 -0.349605 -0.9006
226 1 0.0824867 0.256165 0.5 -0.249805 -0.667917
227 1 0.0312446 0.0800418 0.5 -0.307534 -0.869584
228 1 0.0511685 0.0633047 0.5 -0.37553 -0.896192
229 1 0.0947403 0.114066 0.5 -0.272636 -0.879302
230 1 0.0512599 0.147207 0.5 -0.375997 -0.838061
231 1 0.0887187 0.0960726 0.5 -0.221335 -0.740513
232 1 0.104386 0.110955 0.5 -0.195667 -0.925492
233 1 0.980055 0.188657 0.5 -0.218691 -0.883159
234 1 0.998934 0.183379 0.5 -0.397394 -0.899462
235 1 0.0123571 0.0771084 0.5 -0.322003 -0.857556
236 1 0.972441 0.18117 0.5 -0.249122 -0.89361
237 1 0.0998674 0.177812 0.5 -0.156561 -0.970903
238 1 0.983618 0.169474 0.5 -0.0227858 -0.953254
239 1 0.0628983 0.181304 0.5 -0.182859 -0.890194
240 1 0.0674821 0.160998 0.5 -0.57658 -0.781263
241 1 0.994546 0.202494 0.5 -0.201285 -0.952846
242 1 0.996528 0.110816 0.5 -0.0881676 -0.787195
243 1 0.0524942 0.193616 0.5 -0.293759 -0.916051
244 1 0.00866659 0.180283 0.5 -0.405678 -0.85131
245 1 0.0851522 0.117272 0.5 -0.220753 -0.958407
246 1 0.040489 0.2444 0.5 -0.234455 -0.818702
247 1 0.999789 0.0523096 0.5 -0.0913371 -0.941367
248 1 0.999433 0.219169 0.5 -0.320569 -0.802407
249 1 0.981838 0.179352 0.5 -0.114513 -0.942865
250 1 0.000273379 0.136881 0.5 -0.495301 -0.842377
251 1 0.0168765 0.0563966 0.5 -0.170049 -0.929042
252 1 0.993466 0.167531 0.5 0.0106604 -0.955444
253 1 0.0429941 0.103728 0.5 -0.155472 -0.853361
254 1 0.043113 0.196606 0.5 -0.176703 -0.742973
255 1 0.0499953 0.073615 0.5 -0.30606 -0.864366
256 1 0.0346548 0.0601023 0.5 -0.41742 -0.873673
257 1 0.0319543 0.153244 0.5 -0.263965 -0.886529
258 1 0.086048 0.201219 0.5 -0.454636 -0.840252
259 1 0.00560506 0.154321 0.5 -0.329594 -0.730138
260 1 0.00462703 0.0689399 0.5 0.0480042 -0.827677
261 1 0.055803 0.0906294 0.5 -0.27069 -0.840077
262 1 0.0381634 0.0870034 0.5 0.0920209 -0.987958
263 1 0.0319181 0.106806 0.5 -0.099105 -0.860178
264 1 0.0108041 0.0865536 0.5 -0.484884 -0.860958
265 1 0.0473092 0.0373816 0.5 -0.241605 -0.914018
266 1 0.98673 0.242213 0.5 -0.259606 -0.809568
267 1 0.0361287 0.179854 0.5 -0.384382 -0.88289
268 1 0.0161957 0.23324 0.5 -0.0720732 -0.940804
269 1 0.0441465 0.222268 0.5 -0.20486 -0.745795
270 1 0.0613306 0.191086 0.5 -0.454174 -0.857137
271 1 0.0929859 0.264295 0.5 -0.111022 -0.818186
272 1 0.965586 0.164939 0.5 -0.721953 -0.653305
273 1 0.0934045 0.0766818 0.5 -0.338836 -0.902305
274 1 0.0872064 0.107805 0.5 -0.341153 -0.848444
275 1 0.0744812 0.0831479 0.5 -0.632021 -0.627379
276 1 0.0218127 0.249255 0.5 -0.209439 -0.937011
277 1 0.00631848 0.23573 0.5 -0.125184 -0.956667
278 1 0.0437538 0.186713 0.5 -0.48155 -0.773722
279 1 0.0553586 0.174672 0.5 -0.0423995 -0.936258
280 1 0.0607169 0.060495 0.5 -0.401915 -0.894038
281 1 0.0435572 0.141237 0.5 0.0166173 -0.692866
282 1 0.979636 0.225769 0.5 -0.425274 -0.722246
283 1 0.0239242 0.192857 0.5 0.0626793 -0.97209
284 1 0.0813533 0.0900121 0.5 -0.454807 -0.748903
285 1 0.029663 0.0328434 0.5 -0.641071 -0.617535
286 1 0.0310669 0.199917 0.5 0.194417 -0.91442
287 1 0.995889 0.156626 0.5 -0.00906505 -0.973586
288 1 0.0539217 0.184238 0.5 -0.320794 -0.90689
289 1 0.0691095 0.233903 0.5 -0.46592 -0.823035
290 1 0.0491812 0.0280251 0.5 -0.085015 -0.922306
291 1 0.0124453 0.252445 0.5 -0.204983 -0.815759
292 1 0.0837215 0.0341678 0.5 -0.459146 -0.75235
293 1 0.095689 0.066115 0.5 -0.225992 -0.879904
294 1 0.0385771 0.132059 0.5 -0.0816809 -0.365981
295 1 0.0666227 0.172138 0.5 -0.322607 -0.712651
296 1 0.0341395 0.273108 0.5 -0.240335 -0.823707
297 1 0.997058 0.0620243 0.5 -0.180637 -0.907199
298 1 0.097535 0.187757 0.5 -0.225215 -0.91286
299 1 0.022486 0.0731135 0.5 -0.616254 -0.746112
300 1 0.00809851 0.0600561 0.5 0.0518027 -0.854181
301 1 0.0260071 0.230533 0.5 -0.503889 -0.823635
302 1 0.0752191 0.0274377 0.5 -0.318184 -0.679904
303 1 0.992807 0.0926159 0.5 -0.345008 -0.851432
304 1 0.0521725 0.0183095 0.5 -0.380762 -0.795313
305 1 0.0240953 0.240076 0.5 -0.198736 -0.941054
306 1 0.987034 0.113043 0.5 -0.229025 -0.881391
307 1 0.0759312 0.119795 0.5 -0.235776 -0.858205
308 1 0.978826 0.235339 0.5 -0.499163 -0.744717
309 1 0.0961933 0.151567 0.5 -0.75934 -0.552272
310 1 0.092262 0.123253 0.5 -0.0650945 -0.899268
311 1 0.0233454 0.0180846 0.5 -0.161082 -0.828749
312 1 0.0714483 0.224256 0.5 -0.334115 -0.748117
313 1 0.0658841 0.124075 0.5 -0.312018 -0.916371
314 1 0.0258056 0.0992955 0.5 0.00717248 -0.876654
315 1 0.0477576 0.0844293 0.5 -0.137862 -0.915604
316 1 0.989911 0.267482 0.5 -0.672298 -0.640532
317 1 0.102245 0.26153 0.5 -0.377027 -0.891448
318 1 0.0527446 0.00834481 0.5 -0.210929 -0.775572
319 1 0.026738 0.265829 0.5 -0.209361 -0.903208
320 1 0.0840351 0.0800525 0.5 -0.367318 -0.866734
321 1 0.00420071 0.116488 0.5 -0.62145 -0.739404
322 1 0.999955 0.264363 0.5 -0.365914 -0.867771
323 1 0.0815816 0.184225 0.5 -0.17306 -0.881176
324 1 0.0190069 0.213976 0.5 -0.358378 -0.71223
325 1 0.0114233 0.169929 0.5 -0.400426 -0.812471
326 1 0.990345 0.102173 0.5 -0.0313146 -0.846346
327 1 0.982849 0.251659 0.5 -0.208647 -0.860914
328 1 0.978187 0.0679872 0.5 -0.584292 -0.678745
329 1 0.0274574 0.220061 0.5 -0.742459 -0.594112
330 1 0.0704029 0.103611 0.5 -0.176539 -0.949053
331 1 0.0446202 0.0942714 0.5 -0.252599 -0.861774
332 1 0.0321743 0.0698903 0.5 -0.514549 -0.805858
333 1 0.987965 0.0650864 0.5 -0.3884 -0.858612
334 1 0.0410828 0.0770077 0.5 -0.309994 -0.829198
335 1 0.0734238 0.259434 0.5 -0.70591 -0.648546
336 1 0.0384787 0.122349 0.5 -0.524436 -0.591356
337 1 0.000219531 0.0996795 0.5 -0.0546538 -0.927017
338 1 0.0169654 0.490791 0.5 -0.334407 -0.861303
339 1 0.098333 0.444764 0.5 0.000824547 -0.873523
340 1 0.997025 0.496827 0.5 -0.13966 -0.886599
341 1 0.0290535 0.47801 0.5 -0.508416 -0.680431
342 1 0.106276 0.405734 0.5 -0.286849 -0.843304
343 1 0.0105332 0.392064 0.5 -0.0792873 -0.965468
344 1 0.0803229 0.358463 0.5 -0.402402 -0.859356
345 1 0.0636072 0.401298 0.5 -0.264481 -0.711144
346 1 0.0673662 0.427982 0.5 -0.449723 -0.712947
347 1 0.973317 0.346024 0.5 -0.403747 -0.778201
348 1 0.108367 0.489891 0.5 -0.368507 -0.785197
349 1 0.999511 0.31106 0.5 -0.239742 -0.874527
350 1 0.0240746 0.367517 0.5 -0.258315 -0.888831
351 1 0.0522547 0.404316 0.5 -0.233478 -0.828205
352 1 0.0276017 0.488442 0.5 -0.363149 -0.789461
353 1 0.07628 0.41569 0.5 -0.218423 -0.595903
354 1 0.00426672 0.374244 0.5 -0.394014 -0.866599
355 1 0.0660973 0.475542 0.5 -0.186318 -0.960727
356 1 0.985331 0.287958 0.5 -0.168711 -0.948505
357 1 0.00792856 0.402162 0.5 -0.0367129 -0.950973
358 1 0.0954906 0.29042 0.5 0.0109568 -0.937808
359 1 0.0877633 0.411948 0.5 -0.474271 -0.80558
360 1 0.072826 0.351435 0.5 -0.480879 -0.824398
361 1 0.106905 0.323194 0.5 0.23557 -0.932318
362 1 0.0898457 0.40208 0.5 -0.289067 -0.886142
363 1 0.0621427 0.318906 0.5 -0.278284 -0.809756
364 1 0.0642162 0.345322 0.5 -0.446622 -0.856593
365 1 0.0855297 0.375425 0.5 -0.0619129 -0.907332
366 1 0.104364 0.461978 0.5 -0.0110356 -0.944406
367 1 0.0156546 0.501445 0.5 -0.186497 -0.921399
368 1 0.0336541 0.458627 0.5 -0.0998513 -0.922359
369 1 0.0492047 0.378453 0.5 -0.476731 -0.858446
370 1 0.0703495 0.361467 0.5 -0.466253 -0.790449
371 1 0.0244168 0.451342 0.5 -0.0286599 -0.839917
372 1 0.00754495 0.271656 0.5 -0.0688819 -0.969585
373 1 0.0159702 0.325615 0.5 -0.284315 -0.857653
374 1 0.0465704 0.519405 0.5 -0.217356 -0.944253
375 1 0.0552093 0.395606 0.5 -0.31524 -0.794325
376 1 0.0824427 0.266423 0.5 -0.154776 -0.774994
377 1 0.0159653 0.36095 0.5 -0.444494 -0.877027
378 1 0.0186463 0.480188 0.5 -0.321848 -0.889802
379 1 0.0841876 0.301832 0.5 -0.172129 -0.923077
380 1 0.0369454 0.439341 0.5 -0.49101 -0.732887
381 1 0.0937603 0.299564 0.5 -0.0701368 -0.97399
382 1 0.0352046 0.318216 0.5 -0.559624 -0.81157
383 1 0.0618635 0.355713 0.5 -0.515397 -0.784425
384 1 0.00268541 0.431706 0.5 -0.306117 -0.885413
385 1 0.0883647 0.318257 0.5 0.0608652 -0.950035
386 1 0.994479 0.425381 0.5 -0.246923 -0.859208
387 1 0.0550466 0.311751 0.5 -0.518006 -0.724655
388 1 0.0482119 0.295438 0.5 -0.502239 -0.841218
389 1 0.0333232 0.412683 0.5 -0.528054 -0.770073
390 1 0.0572161 0.384971 0.5 -0.448521 -0.847106
391 1 0.0271301 0.442375 0.5 -0.146098 -0.871914
392 1 0.056896 0.431204 0.5 -0.608302 -0.662126
393 1 0.109194 0.395836 0.5 -0.397272 -0.875121
394 1 0.987932 0.324584 0.5 -0.291248 -0.890188
395 1 0.061349 0.27227 0.5 -0.502567 -0.571292
396 1 0.0922032 0.476174 0.5 -0.38825 -0.84093
397 1 0.0423356 0.40879 0.5 -0.613886 -0.750783
398 1 0.0712076 0.314108 0.5 -0.277605 -0.819496
399 1 0.112629 0.422699 0.5 -0.29265 -0.822948
400 1 0.0495467 0.544972 0.5 -0.368545 -0.831105
401 1 0.997087 0.451103 0.5 -0.342462 -0.875953
402 1 0.0129686 0.289268 0.5 -0.106329 -0.874459
403 1 0.0502002 0.415927 0.5 -0.594653 -0.764888
404 1 0.0725732 0.444478 0.5 -0.203433 -0.938143
405 1 0.0170732 0.269008 0.5 -0.295566 -0.937634
406 1 0.0775228 0.462625 0.5 -0.427619 -0.831696
407 1 0.0568034 0.516192 0.5 -0.0904629 -0.981342
408 1 0.0673992 0.381522 0.5 -0.422827 -0.646179
409 1 0.00586055 0.411866 0.5 -0.293012 -0.844684
410 1 0.0792522 0.451974 0.5 -0.350376 -0.860532
411 1 0.0132805 0.334827 0.5 -0.0707271 -0.935016
412 1 0.0920349 0.392635 0.5 -0.267754 -0.853469
413 1 0.0507106 0.46268 0.5 -0.319594 -0.837261
414 1 0.0375518 0.522207 0.5 -0.262575 -0.946501
415 1 0.00166364 0.346447 0.5 -0.2923 -0.746581
416 1 0.0125391 0.511216 0.5 -0.239076 -0.901436
417 1 0.00305911 0.336678 0.5 -0.0773947 -0.846325
418 1 0.0605569 0.365942 0.5 -0.393489 -0.835889
419 1 0.987607 0.418902 0.5 -0.0971982 -0.472366
420 1 0.109192 0.526382 0.5 -0.360348 -0.899882
421 1 0.995874 0.28516 0.5 -0.387017 -0.88464
422 1 0.0440708 0.270395 0.5 -0.492444 -0.80953
423 1 0.992037 0.481313 0.5 -0.345855 -0.856672
424 1 0.0569702 0.338751 0.5 -0.285754 -0.948731
425 1 0.982562 0.427244 0.5 -0.00138836 -0.548646
426 1 0.0869111 0.457907 0.5 -0.290318 -0.811406
427 1 0.0150583 0.408505 0.5 -0.444272 -0.841694
428 1 0.101971 0.435423 0.5 0.226028 -0.777507
429 1 0.0821125 0.348101 0.5 -0.495955 -0.845368
430 1 0.992084 0.434857 0.5 -0.248831 -0.939004
431 1 0.0197875 0.388733 0.5 -0.352856 -0.900105
432 1 0.0264335 0.321611 0.5 -0.488308 -0.776542
433 1 0.0318806 0.506145 0.5 -0.115008 -0.909102
434 1 0.993659 0.29536 0.5 -0.179817 -0.924966
435 1 0.0957108 0.418113 0.5 -0.316855 -0.875321
436 1 0.983725 0.297544 0.5 -0.258573 -0.928981
437 1 0.0089781 0.483371 0.5 -0.536694 -0.74224
438 1 0.0818066 0.31123 0.5 0.0501338 -0.97366
439 1 0.975874 0.420226 0.5 0.26784 -0.909557
440 1 0.0447965 0.315123 0.5 -0.339278 -0.931362
441 1 0.0418432 0.371807 0.5 -0.364591 -0.906448
442 1 0.0595263 0.412323 0.5 -0.270376 -0.823795
443 1 0.047814 0.38854 0.5 -0.305133 -0.871427
444 1 0.0967342 0.325434 0.5 0.0044228 -0.951183
445 1 0.0283872 0.432379 0.5 -0.137339 -0.905534
446 1 0.0827016 0.394077 0.5 -0.313914 -0.650545
447 1 0.0643078 0.486399 0.5 0.000429082 -0.848365
448 1 0.996366 0.413629 0.5 -0.357266 -0.698937
449 1 0.0212846 0.42526 0.5 -0.0752611 -0.960787
450 1 0.097419 0.492854 0.5 -0.267815 -0.952102
451 1 0.0747274 0.519537 0.5 -0.543468 -0.771973
452 1 0.982883 0.343814 0.5 -0.148515 -0.958816
453 1 0.00669353 0.364388 0.5 -0.419008 -0.896692
454 1 0.00506656 0.457497 0.5 -0.537977 -0.829888
455 1 0.0733924 0.482265 0.5 -0.406994 -0.873177
456 1 0.074442 0.304665 0.5 -0.277672 -0.809784
457 1 0.0841207 0.431257 0.5 -0.632396 -0.737617
458 1 0.12413 0.408325 0.5 -0.23544 -0.924205
459 1 0.100915 0.388934 0.5 -0.354337 -0.851302
460 1 0.075322 0.47267 0.5 -0.331547 -0.912613
461 1 0.0779429 0.367668 0.5 -0.338038 -0.886848
462 1 0.0501051 0.286089 0.5 -0.284534 -0.911098
463 1 0.982822 0.437262 0.5 -0.323035 -0.708281
464 1 0.0943563 0.382183 0.5 -0.290171 -0.870432
465 1 0.993687 0.516404 0.5 -0.13523 -0.894461
466 1 0.0970416 0.408272 0.5 -0.351639 -0.874903
467 1 0.103417 0.424742 0.5 -0.174072 -0.906031
468 1 0.00157891 0.394414 0.5 -0.249213 -0.778708
469 1 0.0784298 0.499589 0.5 -0.409958 -0.85251
470 1 0.987 0.453718 0.5 -0.203916 -0.897028
471 1 0.989566 0.490473 0.5 -0.0931748 -0.977173
472 1 0.112175 0.434048 0.5 -0.0344896 -0.557864
473 1 0.0877729 0.49577 0.5 -0.235879 -0.944122
474 1 0.991381 0.387812 0.5 -0.212359 -0.660428
475 1 0.0383627 0.483512 0.5 -0.347287 -0.527102
476 1 0.0336776 0.282804 0.5 -0.413295 -0.813982
477 1 0.0310524 0.29201 0.5 -0.225113 -0.942076
478 1 0.00517023 0.281424 0.5 -0.122528 -0.877151
479 1 0.0111105 0.344954 0.5 -0.0893149 -0.895746
480 1 0.99376 0.470472 0.5 -0.42951 -0.87874
481 1 0.0244555 0.40566 0.5 -0.491798 -0.795231
482 1 0.987879 0.371232 0.5 -0.174366 -0.819234
483 1 0.0952814 0.503044 0.5 -0.328334 -0.93195
484 1 0.0590909 0.506749 0.5 -0.0716893 -0.961118
485 1 0.0623739 0.53296 0.5 -0.262765 -0.728907
486 1 0.0558414 0.301414 0.5 -0.70148 -0.657977
487 1 0.0685944 0.287911 0.5 -0.244586 -0.743987
488 1 0.0430023 0.279852 0.5 -0.451456 -0.852204
489 1 0.0588676 0.468354 0.5 -0.38901 -0.828308
490 1 0.0567068 0.477976 0.5 -0.242275 -0.890258
491 1 0.0377812 0.345222 0.5 -0.272951 -0.908143
492 1 0.0244076 0.275367 0.5 -0.466207 -0.740344
493 1 0.036287 0.35519 0.5 -0.375441 -0.845876
494 1 0.0917993 0.437536 0.5 -0.259108 -0.832511
495 1 0.0599165 0.45877 0.5 -0.389187 -0.845057
496 1 0.110368 0.31419 0.5 -0.210385 -0.798635
497 1 0.089112 0.448539 0.5 -0.285529 -0.929944
498 1 0.083137 0.478691 0.5 -0.24727 -0.884349
499 1 0.984278 0.380483 0.5 0.12366 -0.934514
500 1 0.105138 0.415103 0.5 -0.41877 -0.867176
501 1 0.00818582 0.494322 0.5 -0.313872 -0.824908
502 1 0.99463 0.378582 0.5 -0.118427 -0.800189
503 1 0.0743848 0.388813 0.5 -0.466285 -0.726435
504 1 0.0652169 0.438322 0.5 -0.365499 -0.921516
505 1 0.0443624 0.398409 0.5 -0.331638 -0.827061
506 1 0.110887 0.385851 0.5 -0.337207 -0.928188
507 1 0.0101966 0.43801 0.5 -0.274383 -0.917055
508 1 0.0998817 0.398818 0.5 -0.273926 -0.868402
509 1 0.0180859 0.351586 0.5 -0.275193 -0.949124
510 1 0.0440209 0.45567 0.5 -0.335758 -0.824564
511 1 0.0797111 0.276093 0.5 -0.217963 -0.860013
512 1 0.0411759 0.502416 0.5 -0.177798 -0.73722
513 1 0.0364696 0.449729 0.5 -0.379618 -0.616945
514 1 0.99551 0.330801 0.5 -0.333252 -0.872642
515 1 0.0531028 0.276815 0.5 -0.525073 -0.613459
516 1 0.0287039 0.301442 0.5 -0.468558 -0.725165
517 1 0.00350709 0.514536 0.5 -0.0800713 -0.932375
518 1 0.0451217 0.351055 0.5 -0.240687 -0.828696
519 1 0.997791 0.274034 0.5 -0.316446 -0.888295
520 1 0.0548572 0.348861 0.5 -0.166252 -0.94168
521 1 0.991663 0.39807 0.5 -0.315478 -0.746539
522 1 0.0583778 0.421606 0.5 -0.747204 -0.630192
523 1 0.0378193 0.474048 0.5 -0.307925 -0.597423
524 1 0.0963887 0.455349 0.5 -0.162045 -0.950904
525 1 0.060301 0.282966 0.5 -0.531477 -0.656964
526 1 0.0121593 0.428338 0.5 -0.362145 -0.930107
527 1 0.10688 0.452796 0.5 -0.156721 -0.885172
528 1 0.00470556 0.421562 0.5 -0.413527 -0.882517
529 1 0.0804815 0.488618 0.5 -0.257595 -0.865983
530 1 0.0787768 0.321023 0.5 -0.149607 -0.877171
531 1 0.0846001 0.469415 0.5 -0.438053 -0.869522
532 1 0.126335 0.398775 0.5 -0.202456 -0.903059
533 1 0.0742477 0.341809 0.5 -0.529508 -0.808875
534 1 0.000278522 0.487837 0.5 -0.368538 -0.749315
535 1 0.0484873 0.471955 0.5 -0.323065 -0.822846
536 1 0.988993 0.361092 0.5 -0.417547 -0.862176
537 1 0.0225562 0.508335 0.5 -0.0427699 -0.977667
538 1 0.0899457 0.486434 0.5 -0.0942556 -0.952802
539 1 0.0353056 0.493932 0.5 -0.0652412 -0.784424
540 1 0.00339379 0.467544 0.5 -0.444552 -0.88301
541 1 0.0528124 0.451661 0.5 -0.409184 -0.861728
542 1 0.092122 0.345185 0.5 -0.286809 -0.902647
543 1 0.0070655 0.447661 0.5 -0.327959 -0.89679
544 1 0.0528514 0.359089 0.5 -0.322883 -0.922466
545 1 0.989934 0.444239 0.5 -0.0268332 -0.976361
546 1 0.0206087 0.34082 0.5 -0.204926 -0.901185
547 1 0.0185001 0.316344 0.5 -0.326458 -0.755929
548 1 0.0697167 0.278476 0.5 -0.422754 -0.742975
549 1 0.0935411 0.335266 0.5 -0.194566 -0.878962
550 1 0.0923797 0.523293 0.5 -0.454082 -0.824215
551 1 0.10105 0.472014 0.5 -0.388428 -0.806621
552 1 0.0896139 0.354312 0.5 -0.197165 -0.854684
553 1 0.988232 0.278105 0.5 -0.318779 -0.889275
554 1 0.0202615 0.470122 0.5 -0.24771 -0.881596
555 1 0.0656151 0.297872 0.5 -0.406632 -0.841943
556 1 0.040794 0.419986 0.5 -0.524346 -0.797608
557 1 0.120493 0.429545 0.5 -0.328414 -0.759101
558 1 0.0484481 0.42636 0.5 -0.74269 -0.571045
559 1 0.0446042 0.528899 0.5 -0.269014 -0.951269
560 1 0.0749235 0.29507 0.5 -0.105104 -0.750806
561 1 0.0302984 0.338335 0.5 0.0365358 -0.96852
562 1 0.107474 0.443033 0.5 0.17791 -0.655159
563 1 0.0233155 0.461212 0.5 -0.197951 -0.887741
564 1 0.0934851 0.465605 0.5 -0.299252 -0.836364
565 1 0.0475106 0.435688 0.5 -0.617649 -0.723364
566 1 0.00522052 0.504425 0.5 -0.122511 -0.959821
567 1 0.06925 0.325334 0.5 -0.359853 -0.875378
568 1 0.0855929 0.329153 0.5 -0.159189 -0.913682
569 1 0.118835 0.440504 0.5 -0.0656004 -0.953141
570 1 0.99593 0.506578 0.5 -0.303452 -0.865003
571 1 0.0476194 0.481376 0.5 -0.368993 -0.827955
572 1 0.0433954 0.36232 0.5 -0.415001 -0.872021
573 1 0.0339623 0.402403 0.5 -0.49447 -0.792843
574 1 0.103152 0.297282 0.5 -0.187538 -0.953103
575 1 0.0470008 0.305863 0.5 -0.499861 -0.729654
576 1 0.00654887 0.327878 0.5 -0.130728 -0.647337
577 1 0.0494642 0.508896 0.5 -0.211358 -0.917651
578 1 0.0498732 0.331862 0.5 -0.271396 -0.914455
579 1 0.9909 0.304295 0.5 -0.30703 -0.849855
580 1 0.0240172 0.41583 0.5 -0.285607 -0.833039
581 1 0.0731584 0.528606 0.5 -0.468081 -0.740196
582 1 0.0195306 0.434795 0.5 -0.248621 -0.95034
583 1 0.0234588 0.331606 0.5 -0.123492 -0.94839
584 1 0.999502 0.441185 0.5 -0.186079 -0.942126
585 1 0.0995105 0.529376 0.5 -0.418102 -0.897069
586 1 0.11312 0.376403 0.5 -0.519816 -0.693137
587 1 0.0339819 0.3284 0.5 -0.243708 -0.83815
588 1 0.00180496 0.47695 0.5 -0.582501 -0.791475
589 1 0.978936 0.411148 0.5 0.0756142 -0.942819
590 1 0.0396276 0.512244 0.5 -0.349481 -0.899836
591 1 0.9664 0.422789 0.5 -0.243917 -0.846122
592 1 0.0342616 0.365171 0.5 -0.214306 -0.934006
593 1 0.000576362 0.301629 0.5 -0.330027 -0.864381
594 1 0.0954542 0.37281 0.5 -0.442227 -0.767489
595 1 0.0862551 0.292568 0.5 0.00944727 -0.967066
596 1 0.00287523 0.384354 0.5 -0.375117 -0.815614
597 1 0.0142799 0.418339 0.5 -0.375244 -0.840829
598 1 0.0144323 0.453596 0.5 -0.304942 -0.864655
599 1 0.0202331 0.518697 0.5 -0.380517 -0.9036
600 1 0.0914115 0.309185 0.5 0.0558043 -0.971305
601 1 0.0852861 0.421144 0.5 -0.549898 -0.668867
602 1 0.0830157 0.384736 0.5 -0.280485 -0.752885
603 1 0.0152313 0.280011 0.5 -0.253902 -0.740241
604 1 0.116727 0.401952 0.5 -0.413119 -0.900062
605 1 0.0291573 0.515481 0.5 -0.258193 -0.901231
606 1 0.0411382 0.289188 0.5 -0.250765 -0.941036
607 1 0.990183 0.313982 0.5 -0.325689 -0.855986
608 1 0.0172153 0.39943 0.5 -0.228154 -0.913239
609 1 0.064177 0.523455 0.5 -0.385181 -0.778296
610 1 0.981749 0.307221 0.5 -0.284397 -0.93177
611 1 0.036342 0.392323 0.5 -0.272852 -0.927319
612 1 0.024664 0.498338 0.5 -0.183395 -0.920967