ITEM: TIMESTEP
0
ITEM: NUMBER OF ATOMS
10945
ITEM: BOX BOUNDS pp pp pp
-5.8359999999999999e+01 5.8359999999999999e+01
-5.8359999999999999e+01 5.8359999999999999e+01
-5.0000000000000000e-01 5.0000000000000000e-01
ITEM: ATOMS id type xs ys zs c_002[1] c_002[2]
1 1 0.059819 0.155942 0.5 -0.205759 -0.910728
2 1 0.0538216 0.139897 0.5 -0.409163 -0.520567
3 1 0.0785093 0.0537712 0.5 -0.575591 -0.780551
4 1 0.01723 0.188423 0.5 -0.278251 -0.885224
5 1 0.0797055 0.148528 0.5 -0.408324 -0.863169
6 1 0.0697093 0.189358 0.5 -0.260267 -0.675818
7 1 0.0323945 0.237793 0.5 -0.2266 -0.8964
8 1 0.0754819 0.169219 0.5 -0.091758 -0.933464
9 1 0.07667 0.111092 0.5 -0.101932 -0.810404
10 1 0.985101 0.0776307 0.5 -0.556353 -0.704051
11 1 0.0254989 0.0536141 0.5 -0.634336 -0.631727
12 1 0.0349376 0.22883 0.5 -0.0458696 -0.871377
13 1 0.0242711 0.0645646 0.5 -0.502147 -0.811789
14 1 0.0678686 0.114874 0.5 -0.423064 -0.845601
15 1 0.0356196 0.0987955 0.5 -0.190914 -0.88317
16 1 0.030744 0.247902 0.5 -0.297263 -0.822709
17 1 0.994122 0.0732503 0.5 -0.624965 -0.698568
18 1 0.0680724 0.0216319 0.5 -0.0606857 -0.871911
19 1 0.0281986 0.127587 0.5 -0.598701 -0.733072
20 1 0.999209 0.0434658 0.5 -0.452381 -0.813353
21 1 0.0948008 0.16137 0.5 -0.543465 -0.691247
22 1 0.0836001 0.175784 0.5 -0.329175 -0.655385
23 1 0.1007 0.0853266 0.5 -0.406501 -0.785773
24 1 0.0213966 0.16884 0.5 -0.367992 -0.888472
25 1 0.0962408 0.105157 0.5 -0.0762099 -0.899913
26 1 0.0274478 0.185414 0.5 -0.423829 -0.870363
27 1 0.0413301 0.115113 0.5 -0.311676 -0.810093
28 1 0.0759676 0.252637 0.5 -0.247385 -0.866139
29 1 0.0807261 0.232096 0.5 -0.358249 -0.897661
30 1 0.0298377 0.0246937 0.5 -0.135172 -0.904869
31 1 0.050805 0.158504 0.5 -0.183781 -0.969147
32 1 0.0779905 0.158712 0.5 -0.30496 -0.858345
33 1 0.0595944 0.200922 0.5 -0.441782 -0.735967
34 1 0.0348382 0.191392 0.5 -0.282022 -0.931274
35 1 0.0988153 0.141218 0.5 -0.714905 -0.672794
36 1 0.085435 0.212131 0.5 -0.448754 -0.615414
37 1 0.0380855 0.0317385 0.5 -0.408893 -0.858849
38 1 0.0231628 0.159577 0.5 -0.534729 -0.657828
39 1 0.993305 0.25045 0.5 -0.109487 -0.97274
40 1 0.0621056 0.135402 0.5 -0.471523 -0.429514
41 1 0.0908174 0.135168 0.5 -0.660707 -0.668962
42 1 0.0495308 0.241114 0.5 -0.20331 -0.919967
43 1 0.0876336 0.238655 0.5 -0.349338 -0.924341
44 1 0.0360877 0.0414773 0.5 -0.247441 -0.935221
45 1 0.0161423 0.1984 0.5 -0.136303 -0.877128
46 1 0.0128729 0.11613 0.5 -0.25315 -0.76845
47 1 0.997667 0.193862 0.5 -0.308881 -0.883082
48 1 0.0842584 0.166119 0.5 -0.453734 -0.618287
49 1 0.044151 0.048352 0.5 -0.367167 -0.881215
50 1 0.993098 0.0829568 0.5 -0.375432 -0.758885
51 1 0.991945 0.141282 0.5 0.0293081 -0.764673
52 1 0.057669 0.211035 0.5 -0.297152 -0.895247
53 1 0.0697648 0.0572534 0.5 -0.463665 -0.734527
54 1 0.0667325 0.078233 0.5 -0.513779 -0.666248
55 1 0.088911 0.190708 0.5 -0.0327219 -0.781292
56 1 0.0949123 0.244932 0.5 -0.243678 -0.954093
57 1 0.0463252 0.178337 0.5 -0.533282 -0.821004
58 1 0.00215297 0.0335501 0.5 -0.448206 -0.7956
59 1 0.014954 0.0681166 0.5 -0.25996 -0.911424
60 1 0.00836366 0.217682 0.5 0.0490058 -0.88072
61 1 0.0504722 0.204806 0.5 -0.637982 -0.734072
62 1 0.0631947 0.144927 0.5 -0.421089 -0.441492
63 1 0.0779682 0.242187 0.5 -0.313061 -0.923129
64 1 0.0140983 0.161969 0.5 -0.347979 -0.896476
65 1 0.0702972 0.152796 0.5 -0.448846 -0.78928
66 1 0.0553843 0.221996 0.5 -0.281434 -0.891895
67 1 0.014966 0.105143 0.5 -0.132121 -0.938223
68 1 0.0405008 0.208611 0.5 -0.396891 -0.875242
69 1 0.0757493 0.0744082 0.5 -0.619672 -0.713913
70 1 0.0245407 0.148924 0.5 -0.428502 -0.536046
71 1 0.0464282 0.260617 0.5 -0.139462 -0.92836
72 1 0.98783 0.150028 0.5 -0.0373878 -0.821932
73 1 0.0916719 0.181213 0.5 -0.0926941 -0.875401
74 1 0.00014 0.0912478 0.5 -0.207599 -0.906356
75 1 0.0485804 0.214863 0.5 -0.356401 -0.848254
76 1 0.0485617 0.168123 0.5 -0.323204 -0.916647
77 1 0.0512723 0.0551247 0.5 -0.546185 -0.779601
78 1 0.011332 0.125514 0.5 -0.420921 -0.817941
79 1 0.975142 0.173207 0.5 -0.242198 -0.945574
80 1 0.0892425 0.145193 0.5 -0.546988 -0.821544
81 1 0.0424121 0.234299 0.5 -0.147005 -0.890529
82 1 0.00591249 0.227076 0.5 -0.344666 -0.805934
83 1 0.0630929 0.227961 0.5 -0.434914 -0.826241
84 1 0.0577211 0.165131 0.5 -0.301428 -0.910249
85 1 0.0191981 0.131449 0.5 -0.731552 -0.675174
86 1 0.101904 0.122155 0.5 -0.639923 -0.59738
87 1 0.020377 0.121909 0.5 -0.634585 -0.735328
88 1 0.0271313 0.091857 0.5 -0.42835 -0.873577
89 1 0.0925303 0.219692 0.5 -0.122771 -0.692724
90 1 0.987482 0.234224 0.5 -0.262104 -0.912782
91 1 0.0345118 0.0506962 0.5 -0.258896 -0.926462
92 1 0.991677 0.177965 0.5 0.0773893 -0.917827
93 1 0.0776 0.0642555 0.5 -0.575361 -0.762785
94 1 0.983307 0.134336 0.5 -0.1269 -0.736808
95 1 0.00262967 0.247875 0.5 -0.361048 -0.822707
96 1 0.0237127 0.205665 0.5 -0.286133 -0.757742
97 1 0.982894 0.217179 0.5 -0.557752 -0.812229
98 1 0.00278611 0.0232091 0.5 -0.315632 -0.763124
99 1 0.112623 0.117043 0.5 -0.672066 -0.563706
100 1 0.101752 0.213958 0.5 -0.52099 -0.680139
101 1 0.00976505 0.144746 0.5 -0.230328 -0.557038
102 1 0.0173862 0.048281 0.5 -0.442849 -0.625488
103 1 0.105986 0.102058 0.5 -0.355021 -0.825141
104 1 0.0357555 0.263897 0.5 -0.102634 -0.980393
105 1 0.978955 0.153449 0.5 -0.627641 -0.67677
106 1 0.018272 0.140727 0.5 -0.395311 -0.67279
107 1 0.00132889 0.127621 0.5 -0.509998 -0.692175
108 1 0.0690023 0.19883 0.5 -0.360258 -0.807998
109 1 0.0601715 0.0126127 0.5 -0.259252 -0.640325
110 1 0.00432608 0.200997 0.5 0.071348 -0.973173
111 1 0.0706383 0.0476317 0.5 -0.491262 -0.82167
112 1 0.00169133 0.175367 0.5 -0.24218 -0.907772
113 1 0.0386648 0.172231 0.5 -0.40207 -0.869727
114 1 0.0674275 0.24557 0.5 -0.0232056 -0.831916
115 1 0.0157321 0.152473 0.5 -0.143443 -0.87786
116 1 0.0413191 0.160923 0.5 -0.218991 -0.942273
117 1 0.991736 0.213498 0.5 -0.366967 -0.858529
118 1 0.0555473 0.128374 0.5 -0.306688 -0.911904
119 1 0.0502909 0.111875 0.5 -0.278452 -0.937949
120 1 0.0725564 0.178204 0.5 -0.0241009 -0.966774
121 1 0.983818 0.124683 0.5 -0.478473 -0.726322
122 1 0.0554824 0.257887 0.5 -0.208283 -0.958965
123 1 0.0191154 0.179168 0.5 -0.215715 -0.871135
124 1 0.0718826 0.141472 0.5 -0.562546 -0.641417
125 1 0.977559 0.0604578 0.5 -0.602963 -0.751979
126 1 0.0329833 0.0144558 0.5 -0.157949 -0.97164
127 1 0.0548981 0.0343332 0.5 -0.511095 -0.695531
128 1 0.0537869 0.0444241 0.5 -0.499608 -0.773884
129 1 0.0869864 0.155875 0.5 -0.305451 -0.889031
130 1 0.0191363 0.259065 0.5 -0.137673 -0.651246
131 1 0.0827085 0.22122 0.5 -0.179004 -0.774646
132 1 0.0397776 0.0208018 0.5 -0.171261 -0.911091
133 1 0.0585117 0.023515 0.5 -0.0785128 -0.862207
134 1 0.0410983 0.0691582 0.5 -0.42715 -0.866246
135 1 0.0293639 0.175191 0.5 -0.481269 -0.86634
136 1 0.0228121 0.111496 0.5 -0.390633 -0.861526
137 1 0.0111025 0.0303256 0.5 -0.439032 -0.881594
138 1 0.0662987 0.255062 0.5 -0.255831 -0.893318
139 1 0.0425409 0.0588847 0.5 -0.311011 -0.841697
140 1 0.99046 0.223505 0.5 -0.349106 -0.835096
141 1 0.0644273 0.265785 0.5 -0.111611 -0.788135
142 1 0.0649431 0.0311773 0.5 -0.217985 -0.841469
143 1 0.0385165 0.25393 0.5 -0.373273 -0.8828
144 1 0.0714635 0.0945936 0.5 -0.342419 -0.888204
145 1 0.0726113 0.0369118 0.5 -0.328241 -0.837629
146 1 0.0459891 0.131521 0.5 -0.242677 -0.940465
147 1 0.0124457 0.208538 0.5 0.151961 -0.835126
148 1 0.0642713 0.218367 0.5 -0.278444 -0.876447
149 1 0.990476 0.26076 0.5 0.202004 -0.930578
150 1 0.0647127 0.0876427 0.5 -0.261812 -0.908417
151 1 0.0864533 0.0603897 0.5 -0.380976 -0.83851
152 1 0.00403389 0.165443 0.5 -0.49037 -0.827109
153 1 0.0374398 0.219136 0.5 -0.0606946 -0.840542
154 1 0.0806962 0.0441231 0.5 -0.33187 -0.930466
155 1 0.0806659 0.101518 0.5 -0.106695 -0.790374
156 1 0.0311845 0.164758 0.5 -0.493196 -0.77591
157 1 0.019104 0.0378723 0.5 -0.401494 -0.844858
158 1 0.028797 0.257554 0.5 -0.00793865 -0.853192
159 1 0.977107 0.163762 0.5 -0.511114 -0.84753
160 1 0.00973045 0.0399536 0.5 -0.193577 -0.913725
161 1 0.0082122 0.0980542 0.5 -0.121085 -0.944909
162 1 0.989807 0.0467828 0.5 -0.580793 -0.771634
163 1 0.0575003 0.0712991 0.5 -0.78477 -0.531301
164 1 0.0529401 0.267193 0.5 -0.0504376 -0.896887
165 1 0.0604929 0.0512531 0.5 -0.405259 -0.781115
166 1 0.0194255 0.0851846 0.5 -0.158526 -0.931506
167 1 0.0955307 0.19852 0.5 -0.165747 -0.857759
168 1 0.00730488 0.0501678 0.5 -0.296577 -0.874101
169 1 0.100523 0.13193 0.5 -0.655397 -0.665027
170 1 0.0131136 0.0207607 0.5 -0.15032 -0.934195
171 1 0.0881785 0.0502164 0.5 -0.313791 -0.886235
172 1 0.00772078 0.190362 0.5 -0.235229 -0.833177
173 1 0.0601008 0.108857 0.5 -0.402972 -0.845167
174 1 0.0527946 0.102287 0.5 -0.301122 -0.907412
175 1 0.0168392 0.224233 0.5 -0.10484 -0.873329
176 1 0.984406 0.207136 0.5 -0.303358 -0.879772
177 1 0.0573885 0.247622 0.5 -0.176325 -0.838065
178 1 0.0317197 0.211518 0.5 -0.130777 -0.735763
179 1 0.0764935 0.205937 0.5 -0.443814 -0.792964
180 1 0.0939972 0.171688 0.5 -0.566826 -0.566915
181 1 0.0624825 0.0979477 0.5 -0.467463 -0.854788
182 1 0.0273915 0.138029 0.5 -0.500219 -0.783282
183 1 0.991036 0.0370215 0.5 -0.44161 -0.85777
184 1 0.0912348 0.08715 0.5 -0.429348 -0.748968
185 1 0.0301534 0.117829 0.5 -0.409128 -0.861999
186 1 0.996795 0.230676 0.5 -0.383443 -0.846417
187 1 0.0636803 0.0408165 0.5 -0.439156 -0.7982
188 1 0.0850646 0.0698685 0.5 -0.401349 -0.764629
189 1 0.0819483 0.129815 0.5 -0.34797 -0.6469
190 1 0.980138 0.262118 0.5 0.0320948 -0.868902
191 1 0.00153362 0.210555 0.5 0.0569414 -0.974426
192 1 0.0615011 0.237675 0.5 -0.0206697 -0.718255
193 1 0.993125 0.120729 0.5 -0.496008 -0.750816
194 1 0.0815826 0.139222 0.5 -0.540466 -0.710089
195 1 0.000839925 0.258419 0.5 -0.243227 -0.647273
196 1 0.0480996 0.251255 0.5 -0.381048 -0.890306
197 1 0.00320432 0.0800986 0.5 -0.138392 -0.805792
198 1 0.089412 0.2287 0.5 -0.0542232 -0.912132
199 1 0.00550947 0.10785 0.5 0.0145951 -0.972689
200 1 0.108646 0.137251 0.5 -0.794011 -0.545905
201 1 0.0266931 0.04385 0.5 -0.532131 -0.766141
202 1 0.0722392 0.131824 0.5 -0.268401 -0.775231
203 1 0.0668063 0.208285 0.5 -0.0699981 -0.98917
204 1 0.0180846 0.0956707 0.5 -0.230266 -0.874943
205 1 0.042921 0.151609 0.5 -0.204283 -0.910188
206 1 0.0777813 0.1948 0.5 -0.600234 -0.715134
207 1 0.989994 0.187815 0.5 -0.257961 -0.914178
208 1 0.0576662 0.0809445 0.5 -0.576722 -0.558203
209 1 0.0479427 0.12201 0.5 -0.218672 -0.949208
210 1 0.0853403 0.248196 0.5 -0.414032 -0.853796
211 1 0.0575047 0.118767 0.5 -0.304109 -0.935607
212 1 0.99546 0.240374 0.5 -0.289221 -0.896111
213 1 0.977508 0.200666 0.5 -0.129765 -0.978314
214 1 0.0100209 0.135272 0.5 -0.727883 -0.601859
215 1 0.0524447 0.2322 0.5 -0.129786 -0.794188
216 1 0.992877 0.13153 0.5 -0.646662 -0.634909
217 1 0.985858 0.160117 0.5 -0.240053 -0.785953
218 1 0.0351213 0.143726 0.5 -0.473513 -0.772942
219 1 0.00954846 0.26305 0.5 -0.231854 -0.567193
220 1 0.0206085 0.0267693 0.5 -0.23117 -0.884004
221 1 0.998454 0.147983 0.5 0.0352969 -0.951309
222 1 0.0744354 0.215539 0.5 -0.358032 -0.870158
223 1 0.0133037 0.24302 0.5 -0.549225 -0.689769
224 1 0.987592 0.1975 0.5 -0.182264 -0.948278
225 1 0.0662716 0.0678165 0.5 -0.427928 -0.64694
226 1 0.0825513 0.259562 0.5 -0.415228 -0.768177
227 1 0.0294865 0.082726 0.5 -0.169637 -0.948747
228 1 0.0498833 0.0655583 0.5 -0.667833 -0.682113
229 1 0.0943463 0.115346 0.5 -0.444875 -0.888535
230 1 0.0526978 0.149084 0.5 -0.329601 -0.890685
231 1 0.0903424 0.0977469 0.5 -0.225184 -0.796303
232 1 0.103386 0.112354 0.5 -0.478838 -0.640217
233 1 0.979739 0.190396 0.5 -0.318379 -0.915552
234 1 0.99908 0.184599 0.5 -0.440924 -0.818691
235 1 0.0126297 0.0784272 0.5 -0.0407446 -0.953213
236 1 0.97186 0.183965 0.5 -0.249876 -0.816022
237 1 0.101058 0.17931 0.5 -0.308096 -0.803382
238 1 0.984964 0.170096 0.5 -0.0865492 -0.825083
239 1 0.0634878 0.181333 0.5 -0.0437342 -0.911539
240 1 0.0688284 0.162352 0.5 -0.222977 -0.819021
241 1 0.994738 0.203987 0.5 -0.075341 -0.97689
242 1 0.995764 0.111203 0.5 -0.13544 -0.976341
243 1 0.0512475 0.195299 0.5 -0.545377 -0.691136
244 1 0.00925103 0.181086 0.5 -0.244119 -0.883115
245 1 0.0845783 0.119145 0.5 -0.371555 -0.884075
246 1 0.040265 0.243766 0.5 -0.41562 -0.854512
247 1 0.998452 0.0530019 0.5 -0.317778 -0.81742
248 1 0.999186 0.21991 0.5 -0.192438 -0.925033
249 1 0.982147 0.179692 0.5 -0.0767558 -0.918543
250 1 0.00105397 0.138878 0.5 -0.460045 -0.70719
251 1 0.0169549 0.0581526 0.5 -0.520201 -0.693082
252 1 0.994772 0.168581 0.5 -0.0137652 -0.925321
253 1 0.0423026 0.105403 0.5 -0.230199 -0.865585
254 1 0.0424523 0.198819 0.5 -0.387384 -0.87646
255 1 0.0483628 0.0755989 0.5 -0.756319 -0.516718
256 1 0.0328031 0.0607823 0.5 -0.317397 -0.780834
257 1 0.0337567 0.1536 0.5 -0.441376 -0.567794
258 1 0.0853759 0.202279 0.5 -0.506247 -0.623283
259 1 0.00510655 0.155216 0.5 -0.206017 -0.736773
260 1 0.00381294 0.0706762 0.5 -0.217746 -0.870735
261 1 0.0553177 0.0918947 0.5 -0.470223 -0.83163
262 1 0.0368731 0.0886326 0.5 -0.410582 -0.872371
263 1 0.031943 0.108686 0.5 -0.217239 -0.857287
264 1 0.00987905 0.0877215 0.5 -0.100976 -0.932566
265 1 0.0459132 0.0390091 0.5 -0.554753 -0.66669
266 1 0.985184 0.243455 0.5 -0.403627 -0.884184
267 1 0.0371833 0.181927 0.5 -0.446844 -0.875402
268 1 0.0138284 0.233183 0.5 -0.482833 -0.636268
269 1 0.0455394 0.225056 0.5 -0.141641 -0.89445
270 1 0.0604143 0.1911 0.5 -0.171039 -0.796577
271 1 0.0906783 0.266044 0.5 -0.60837 -0.703384
272 1 0.967894 0.167078 0.5 -0.169036 -0.896554
273 1 0.0931173 0.0777778 0.5 -0.352007 -0.898189
274 1 0.0866974 0.10887 0.5 -0.0484373 -0.892319
275 1 0.0738962 0.0850311 0.5 -0.385486 -0.863656
276 1 0.0201607 0.249619 0.5 -0.215408 -0.837966
277 1 0.00525201 0.237727 0.5 -0.571876 -0.629206
278 1 0.0446052 0.188335 0.5 -0.373921 -0.865337
279 1 0.0564408 0.174927 0.5 -0.400564 -0.883327
280 1 0.0588864 0.0608407 0.5 -0.578568 -0.730389
281 1 0.0443521 0.141186 0.5 -0.182565 -0.869827
282 1 0.980649 0.227253 0.5 -0.163154 -0.954487
283 1 0.0250926 0.195078 0.5 -0.439284 -0.87005
284 1 0.0821759 0.0911539 0.5 -0.660504 -0.71194
285 1 0.0281536 0.0343868 0.5 -0.334548 -0.900292
286 1 0.0322552 0.201745 0.5 -0.455939 -0.779083
287 1 0.996602 0.158943 0.5 -0.217047 -0.814912
288 1 0.0540363 0.18402 0.5 -0.25785 -0.849637
289 1 0.0708187 0.235316 0.5 -0.0939269 -0.963755
290 1 0.0467109 0.0278254 0.5 -0.34079 -0.701648
291 1 0.0107409 0.253682 0.5 -0.722374 -0.599368
292 1 0.0831835 0.034053 0.5 -0.0920709 -0.978463
293 1 0.0945114 0.0681239 0.5 -0.204317 -0.897159
294 1 0.0368333 0.13454 0.5 -0.454091 -0.884942
295 1 0.0653768 0.171481 0.5 -0.155151 -0.889224
296 1 0.0329906 0.273372 0.5 -0.322016 -0.89371
297 1 0.995648 0.0622678 0.5 -0.241616 -0.733219
298 1 0.0988051 0.188974 0.5 0.015094 -0.911682
299 1 0.0221496 0.0754175 0.5 -0.136627 -0.974424
300 1 0.00587263 0.0608958 0.5 -0.10898 -0.855432
301 1 0.0250827 0.230409 0.5 0.0342776 -0.8909
302 1 0.0758345 0.0274181 0.5 -0.315823 -0.877282
303 1 0.990533 0.0942203 0.5 -0.360623 -0.91899
304 1 0.0512101 0.0176239 0.5 -0.415371 -0.598745
305 1 0.0228743 0.239927 0.5 -0.152117 -0.924294
306 1 0.985469 0.114145 0.5 -0.231462 -0.937261
307 1 0.0755491 0.122494 0.5 -0.101598 -0.868082
308 1 0.977627 0.237424 0.5 -0.229887 -0.910531
309 1 0.0977253 0.152159 0.5 -0.502048 -0.758636
310 1 0.0925536 0.125346 0.5 -0.554298 -0.81974
311 1 0.0234054 0.0175265 0.5 -0.0581991 -0.971574
312 1 0.0726831 0.225695 0.5 -0.432095 -0.838067
313 1 0.0650613 0.125438 0.5 -0.142535 -0.971686
314 1 0.0252394 0.102109 0.5 -0.218255 -0.964166
315 1 0.0480231 0.0853574 0.5 -0.581361 -0.673425
316 1 0.987485 0.269727 0.5 0.205005 -0.973465
317 1 0.098922 0.261372 0.5 -0.339575 -0.664228
318 1 0.0519525 0.00754042 0.5 -0.484108 -0.662899
319 1 0.0247115 0.266876 0.5 -0.0587586 -0.735484
320 1 0.0830794 0.0812421 0.5 -0.583034 -0.760551
321 1 0.0027621 0.117503 0.5 -0.125222 -0.888526
322 1 0.997521 0.267304 0.5 -0.0887887 -0.88318
323 1 0.0794938 0.18502 0.5 -0.298832 -0.689104
324 1 0.0201252 0.214413 0.5 -0.018716 -0.869608
325 1 0.0120012 0.171352 0.5 -0.211709 -0.891964
326 1 0.988484 0.104013 0.5 -0.211429 -0.95565
327 1 0.983248 0.253291 0.5 -0.0031945 -0.928444
328 1 0.976904 0.0701753 0.5 -0.713986 -0.608486
329 1 0.0282794 0.221265 0.5 0.167386 -0.928392
330 1 0.0697339 0.104273 0.5 -0.372903 -0.851492
331 1 0.045719 0.0959791 0.5 -0.243751 -0.880594
332 1 0.0321546 0.0722823 0.5 -0.286101 -0.866214
333 1 0.986066 0.0668384 0.5 -0.719789 -0.665636
334 1 0.0391866 0.0794089 0.5 -0.420941 -0.818739
335 1 0.0732076 0.262231 0.5 -0.284964 -0.891601
336 1 0.0386948 0.124486 0.5 -0.219184 -0.934771
337 1 0.998571 0.100643 0.5 -0.237103 -0.925163
338 1 0.014919 0.489655 0.5 -0.406789 -0.75192
339 1 0.0984149 0.44699 0.5 -0.422461 -0.84776
340 1 0.99652 0.496858 0.5 -0.245387 -0.89495
341 1 0.0274491 0.477855 0.5 -0.0474149 -0.904136
342 1 0.10586 0.406857 0.5 -0.442959 -0.798399
343 1 0.00849221 0.391241 0.5 -0.113546 -0.97182
344 1 0.0812855 0.359466 0.5 -0.343542 -0.831924
345 1 0.061955 0.402881 0.5 -0.50654 -0.794469
346 1 0.0650503 0.430081 0.5 -0.269774 -0.875817
347 1 0.973092 0.348994 0.5 -0.0367421 -0.916446
348 1 0.106088 0.48972 0.5 -0.200424 -0.845886
349 1 0.996918 0.314384 0.5 -0.454782 -0.530728
350 1 0.0235075 0.368323 0.5 -0.129456 -0.870638
351 1 0.0520667 0.40596 0.5 -0.0805051 -0.897303
352 1 0.0259007 0.487742 0.5 -0.191164 -0.863217
353 1 0.0767025 0.416211 0.5 -0.498214 -0.820946
354 1 0.00375069 0.37426 0.5 -0.196142 -0.956556
355 1 0.0641623 0.474272 0.5 -0.190235 -0.905863
356 1 0.983208 0.289856 0.5 -0.611695 -0.732107
357 1 0.00686059 0.400652 0.5 -0.295287 -0.877641
358 1 0.0955193 0.290867 0.5 -0.321084 -0.860968
359 1 0.0858532 0.413394 0.5 -0.349689 -0.787187
360 1 0.0736932 0.353904 0.5 -0.661467 -0.633242
361 1 0.106432 0.324549 0.5 -0.216984 -0.966394
362 1 0.0890647 0.402804 0.5 0.0117018 -0.910356
363 1 0.0611637 0.320898 0.5 -0.254454 -0.829553
364 1 0.0648642 0.347919 0.5 -0.538735 -0.764196
365 1 0.0863755 0.376328 0.5 -0.514 -0.832279
366 1 0.104731 0.463118 0.5 -0.340464 -0.864028
367 1 0.0138737 0.500259 0.5 -0.53488 -0.813232
368 1 0.0309795 0.457015 0.5 -0.301308 -0.809593
369 1 0.0490113 0.379787 0.5 -0.220005 -0.817343
370 1 0.0711563 0.364173 0.5 -0.426747 -0.821301
371 1 0.0235785 0.451052 0.5 -0.375725 -0.893228
372 1 0.00512187 0.272926 0.5 -0.0433999 -0.816854
373 1 0.0141284 0.326369 0.5 -0.510406 -0.806175
374 1 0.0454329 0.517461 0.5 -0.0749656 -0.886483
375 1 0.0533476 0.396296 0.5 -0.372692 -0.885901
376 1 0.0816445 0.269208 0.5 -0.425839 -0.852252
377 1 0.0156289 0.362152 0.5 -0.251442 -0.932305
378 1 0.0167613 0.479447 0.5 -0.0533142 -0.801961
379 1 0.0841211 0.304433 0.5 -0.821322 -0.507776
380 1 0.036367 0.438127 0.5 -0.192415 -0.961408
381 1 0.0930645 0.300319 0.5 -0.530717 -0.67531
382 1 0.0337741 0.320719 0.5 -0.141626 -0.922104
383 1 0.0624411 0.357788 0.5 -0.449459 -0.798974
384 1 0.00149976 0.430592 0.5 -0.140977 -0.97691
385 1 0.0892472 0.321133 0.5 -0.0710494 -0.940829
386 1 0.994337 0.423526 0.5 -0.208612 -0.933614
387 1 0.0534103 0.315244 0.5 0.00974138 -0.870678
388 1 0.0481116 0.298262 0.5 -0.287218 -0.902877
389 1 0.0319228 0.410792 0.5 -0.396615 -0.75525
390 1 0.0553875 0.387133 0.5 -0.0851374 -0.894711
391 1 0.025303 0.441005 0.5 -0.110857 -0.861534
392 1 0.055902 0.432222 0.5 -0.0568575 -0.982695
393 1 0.108427 0.397358 0.5 -0.400821 -0.81336
394 1 0.9868 0.326346 0.5 -0.150017 -0.818096
395 1 0.0608207 0.274503 0.5 -0.0979159 -0.869598
396 1 0.0922493 0.475795 0.5 0.0371904 -0.931639
397 1 0.0411319 0.408479 0.5 -0.0498965 -0.943345
398 1 0.0707429 0.318469 0.5 -0.0330337 -0.715684
399 1 0.112687 0.422958 0.5 -0.74429 -0.642553
400 1 0.0479984 0.545937 0.5 -0.0858997 -0.819625
401 1 0.995997 0.450125 0.5 -0.247729 -0.861481
402 1 0.0108016 0.289466 0.5 -0.103845 -0.906244
403 1 0.0487568 0.41503 0.5 -0.169421 -0.773327
404 1 0.0710951 0.446365 0.5 -0.363054 -0.918742
405 1 0.0155691 0.270719 0.5 0.0478511 -0.8866
406 1 0.0762312 0.462426 0.5 -0.158669 -0.938349
407 1 0.0548843 0.515083 0.5 -0.410628 -0.795161
408 1 0.0649822 0.383395 0.5 -0.123271 -0.887733
409 1 0.00538565 0.410581 0.5 -0.312949 -0.893379
410 1 0.0786946 0.453095 0.5 -0.372745 -0.88391
411 1 0.0133276 0.335932 0.5 -0.383398 -0.814741
412 1 0.0918914 0.393915 0.5 -0.124915 -0.922433
413 1 0.0475336 0.46085 0.5 -0.243584 -0.579272
414 1 0.0350202 0.520701 0.5 -0.224688 -0.940204
415 1 0.00102048 0.348829 0.5 -0.334126 -0.901854
416 1 0.0119466 0.510255 0.5 -0.0982728 -0.900074
417 1 0.00301744 0.339175 0.5 -0.521577 -0.766376
418 1 0.0618717 0.367358 0.5 -0.199078 -0.735412
419 1 0.986639 0.417096 0.5 -0.427668 -0.793038
420 1 0.106366 0.525792 0.5 -0.240238 -0.855735
421 1 0.991963 0.28624 0.5 -0.5374 -0.664337
422 1 0.042879 0.270335 0.5 -0.179222 -0.914938
423 1 0.990667 0.479658 0.5 -0.318005 -0.820089
424 1 0.0571946 0.342142 0.5 -0.114857 -0.870962
425 1 0.983851 0.427064 0.5 -0.403282 -0.826526
426 1 0.0862075 0.459335 0.5 -0.465821 -0.859217
427 1 0.0148906 0.408507 0.5 -0.296186 -0.882432
428 1 0.100381 0.437124 0.5 -0.321083 -0.913181
429 1 0.0833611 0.348793 0.5 -0.436547 -0.632699
430 1 0.991473 0.433112 0.5 -0.204839 -0.924546
431 1 0.0178685 0.388887 0.5 -0.272775 -0.883358
432 1 0.0234887 0.322813 0.5 -0.22371 -0.885674
433 1 0.031368 0.503479 0.5 -0.020324 -0.904747
434 1 0.991989 0.297232 0.5 -0.341633 -0.701577
435 1 0.0952031 0.419978 0.5 -0.438683 -0.732625
436 1 0.982405 0.299472 0.5 -0.187971 -0.871613
437 1 0.00790563 0.483466 0.5 -0.510551 -0.817691
438 1 0.0827783 0.314161 0.5 -0.315089 -0.819019
439 1 0.974961 0.421173 0.5 -0.381146 -0.827798
440 1 0.0439511 0.317049 0.5 -0.00725354 -0.936991
441 1 0.0399187 0.373178 0.5 -0.208314 -0.904835
442 1 0.0592029 0.413623 0.5 -0.242223 -0.761278
443 1 0.0457377 0.388883 0.5 -0.170685 -0.845292
444 1 0.0970864 0.327512 0.5 -0.134609 -0.957598
445 1 0.0294904 0.4313 0.5 -0.278977 -0.725989
446 1 0.0805413 0.396409 0.5 -0.0940846 -0.883611
447 1 0.0621956 0.484608 0.5 -0.313476 -0.931504
448 1 0.995932 0.413867 0.5 -0.396026 -0.906751
449 1 0.0202465 0.424897 0.5 -0.283598 -0.877438
450 1 0.0963131 0.491726 0.5 0.0752888 -0.965993
451 1 0.0731259 0.519618 0.5 -0.347007 -0.602558
452 1 0.98303 0.34569 0.5 -0.351149 -0.790944
453 1 0.00582321 0.364857 0.5 -0.197674 -0.972445
454 1 0.00393608 0.456248 0.5 -0.283916 -0.89116
455 1 0.0712847 0.482081 0.5 -0.318113 -0.868754
456 1 0.0746246 0.308777 0.5 -0.429502 -0.535156
457 1 0.0831617 0.433624 0.5 0.0411371 -0.966539
458 1 0.123535 0.409795 0.5 -0.185366 -0.962475
459 1 0.101433 0.390466 0.5 -0.340285 -0.861865
460 1 0.0733534 0.47207 0.5 -0.146825 -0.882923
461 1 0.07871 0.370696 0.5 -0.458068 -0.830153
462 1 0.0496154 0.286524 0.5 -0.305207 -0.739756
463 1 0.981429 0.436918 0.5 -0.470634 -0.856283
464 1 0.0937135 0.382565 0.5 -0.299546 -0.912497
465 1 0.991213 0.518269 0.5 -0.197714 -0.71632
466 1 0.0953699 0.410296 0.5 -0.224122 -0.75012
467 1 0.102977 0.427517 0.5 -0.483128 -0.723886
468 1 0.999222 0.393823 0.5 -0.485422 -0.789267
469 1 0.0769131 0.497515 0.5 -0.406872 -0.799952
470 1 0.986819 0.45293 0.5 -0.353333 -0.904119
471 1 0.988277 0.489318 0.5 -0.167755 -0.897764
472 1 0.111333 0.43258 0.5 -0.434653 -0.716103
473 1 0.0862169 0.493776 0.5 -0.174018 -0.869326
474 1 0.991956 0.387863 0.5 -0.727554 -0.633105
475 1 0.0349344 0.484314 0.5 -0.441561 -0.809318
476 1 0.0307742 0.283884 0.5 -0.635844 -0.68556
477 1 0.0303371 0.293528 0.5 -0.160565 -0.652574
478 1 0.00218591 0.282538 0.5 -0.394038 -0.77357
479 1 0.0105834 0.345487 0.5 -0.214091 -0.951301
480 1 0.991006 0.469955 0.5 -0.191246 -0.764002
481 1 0.0236819 0.404983 0.5 -0.483973 -0.728152
482 1 0.984794 0.372923 0.5 -0.242005 -0.698298
483 1 0.0935219 0.502121 0.5 -0.0823069 -0.935152
484 1 0.056189 0.505173 0.5 -0.00602586 -0.806402
485 1 0.0607367 0.530503 0.5 -0.288637 -0.543028
486 1 0.056448 0.30621 0.5 -0.307761 -0.529362
487 1 0.0670202 0.291551 0.5 -0.445889 -0.883715
488 1 0.0404429 0.280422 0.5 -0.486424 -0.719637
489 1 0.0565776 0.467865 0.5 -0.400897 -0.874389
490 1 0.0548926 0.478111 0.5 -0.489079 -0.860917
491 1 0.0363726 0.34591 0.5 -0.274058 -0.84086
492 1 0.0230099 0.277501 0.5 -0.442456 -0.854279
493 1 0.0352301 0.356305 0.5 -0.241251 -0.910709
494 1 0.0899619 0.440802 0.5 -0.0745371 -0.893779
495 1 0.0590023 0.458513 0.5 -0.138082 -0.951286
496 1 0.109126 0.314658 0.5 -0.197565 -0.95436
497 1 0.0874413 0.449733 0.5 -0.392897 -0.833093
498 1 0.0818937 0.477823 0.5 -0.141102 -0.839051
499 1 0.983342 0.38255 0.5 -0.638193 -0.615575
500 1 0.10454 0.417464 0.5 -0.651582 -0.635463
501 1 0.00626096 0.493996 0.5 -0.526292 -0.789259
502 1 0.993576 0.377848 0.5 -0.566923 -0.654086
503 1 0.072503 0.389463 0.5 -0.271327 -0.831746
504 1 0.0633108 0.439768 0.5 -0.21423 -0.881716
505 1 0.0441172 0.399208 0.5 -0.214391 -0.927089
506 1 0.110202 0.386515 0.5 -0.574643 -0.798206
507 1 0.00897889 0.437595 0.5 -0.285267 -0.923408
508 1 0.0989745 0.400164 0.5 -0.0369415 -0.966288
509 1 0.0180295 0.352284 0.5 -0.167843 -0.976568
510 1 0.0409054 0.454494 0.5 0.053163 -0.922475
511 1 0.0797766 0.278937 0.5 -0.125409 -0.862311
512 1 0.041239 0.500455 0.5 -0.0684327 -0.901188
513 1 0.0340767 0.447704 0.5 -0.125722 -0.929837
514 1 0.993698 0.333476 0.5 -0.27492 -0.678205
515 1 0.0514893 0.277041 0.5 -0.317873 -0.900706
516 1 0.0260906 0.302477 0.5 -0.320412 -0.331082
517 1 0.00028 0.51347 0.5 -0.304675 -0.651446
518 1 0.0446787 0.353518 0.5 -0.188481 -0.910813
519 1 0.99451 0.277054 0.5 -0.114812 -0.873632
520 1 0.055402 0.351538 0.5 -0.16364 -0.869732
521 1 0.990593 0.398279 0.5 -0.623425 -0.727575
522 1 0.0583984 0.423019 0.5 -0.244411 -0.853863
523 1 0.0374917 0.4752 0.5 -0.285764 -0.858488
524 1 0.0963491 0.456247 0.5 -0.398084 -0.874777
525 1 0.0596553 0.285288 0.5 -0.252365 -0.803754
526 1 0.01044 0.427614 0.5 -0.341241 -0.914843
527 1 0.106388 0.45339 0.5 -0.594495 -0.730422
528 1 0.00349994 0.421166 0.5 -0.27531 -0.93392
529 1 0.0789628 0.487736 0.5 -0.398132 -0.858753
530 1 0.0800189 0.323496 0.5 -0.131934 -0.736795
531 1 0.0846756 0.46881 0.5 -0.233563 -0.905814
532 1 0.125786 0.399523 0.5 -0.308228 -0.948589
533 1 0.0748871 0.343764 0.5 -0.857698 -0.457044
534 1 0.997346 0.486632 0.5 -0.246425 -0.876569
535 1 0.0470977 0.471486 0.5 -0.672307 -0.690983
536 1 0.988802 0.362007 0.5 -0.385644 -0.759134
537 1 0.0210654 0.506941 0.5 -0.257418 -0.938353
538 1 0.0887514 0.48457 0.5 0.0719934 -0.944277
539 1 0.0340856 0.494377 0.5 -0.345815 -0.81279
540 1 0.00151511 0.467085 0.5 -0.277089 -0.809344
541 1 0.0518347 0.452249 0.5 -0.015231 -0.821824
542 1 0.0930871 0.346315 0.5 -0.244806 -0.911289
543 1 0.00661225 0.447161 0.5 -0.193142 -0.955598
544 1 0.0520532 0.36072 0.5 -0.226314 -0.849905
545 1 0.988985 0.442732 0.5 -0.26294 -0.894877
546 1 0.0199511 0.342776 0.5 -0.267864 -0.936154
547 1 0.0161195 0.31677 0.5 -0.455551 -0.859064
548 1 0.06876 0.281552 0.5 -0.235397 -0.907915
549 1 0.0941693 0.336977 0.5 -0.122191 -0.916378
550 1 0.0895374 0.521038 0.5 -0.346017 -0.712142
551 1 0.101433 0.472949 0.5 -0.146635 -0.946137
552 1 0.0906165 0.35717 0.5 -0.0611797 -0.951403
553 1 0.984394 0.27912 0.5 -0.150835 -0.844899
554 1 0.0206453 0.470382 0.5 0.0313314 -0.855643
555 1 0.0649704 0.301094 0.5 -0.60987 -0.600623
556 1 0.0395408 0.418031 0.5 -0.474716 -0.848835
557 1 0.121157 0.429453 0.5 -0.364241 -0.82912
558 1 0.0481259 0.425258 0.5 -0.326791 -0.82925
559 1 0.0424699 0.527989 0.5 -0.105626 -0.948639
560 1 0.0742649 0.298063 0.5 -0.603485 -0.613286
561 1 0.0290251 0.339287 0.5 -0.229712 -0.912388
562 1 0.107365 0.443529 0.5 -0.451304 -0.748185
563 1 0.022136 0.461029 0.5 -0.47915 -0.810825
564 1 0.0945657 0.466222 0.5 -0.23528 -0.94607
565 1 0.0464685 0.435161 0.5 -0.318681 -0.936859
566 1 0.00430402 0.503892 0.5 -0.167639 -0.872695
567 1 0.0683405 0.327705 0.5 -0.491984 -0.755283
568 1 0.087348 0.330325 0.5 -0.123398 -0.974385
569 1 0.118691 0.438859 0.5 -0.0148161 -0.84499
570 1 0.993829 0.506618 0.5 -0.235126 -0.882727
571 1 0.0459491 0.481183 0.5 -0.401684 -0.840419
572 1 0.0426653 0.363827 0.5 -0.141485 -0.93308
573 1 0.0345511 0.401701 0.5 -0.116954 -0.963758
574 1 0.103269 0.297719 0.5 -0.313164 -0.920181
575 1 0.0464786 0.307481 0.5 -0.0986422 -0.789691
576 1 0.00497649 0.329375 0.5 -0.550302 -0.790659
577 1 0.0470812 0.508047 0.5 -0.116176 -0.896335
578 1 0.0505921 0.334859 0.5 0.0554928 -0.667341
579 1 0.989139 0.306588 0.5 -0.119628 -0.927198
580 1 0.0231223 0.415392 0.5 -0.400176 -0.709916
581 1 0.0706022 0.529087 0.5 0.0209929 -0.921627
582 1 0.0185059 0.434282 0.5 -0.265872 -0.938582
583 1 0.0220118 0.332315 0.5 -0.363787 -0.841022
584 1 0.999026 0.440081 0.5 -0.0292465 -0.987677
585 1 0.097463 0.528923 0.5 -0.386935 -0.900548
586 1 0.111847 0.377081 0.5 -0.144876 -0.926319
587 1 0.0315642 0.330245 0.5 -0.173232 -0.94284
588 1 0.000251185 0.476781 0.5 -0.470601 -0.773075
589 1 0.977314 0.411437 0.5 -0.202924 -0.816863
590 1 0.0378198 0.511321 0.5 -0.0079465 -0.913678
591 1 0.96505 0.423678 0.5 -0.361946 -0.81816
592 1 0.0329212 0.365894 0.5 0.0366471 -0.966496
593 1 0.998947 0.304125 0.5 -0.366333 -0.83406
594 1 0.0957759 0.373343 0.5 -0.275441 -0.950293
595 1 0.0843913 0.294508 0.5 -0.558452 -0.677996
596 1 0.00127371 0.38392 0.5 -0.28902 -0.895592
597 1 0.0126692 0.41766 0.5 -0.15123 -0.953022
598 1 0.0143933 0.453757 0.5 -0.283006 -0.922176
599 1 0.0183755 0.517406 0.5 0.0860471 -0.944819
600 1 0.0925876 0.311216 0.5 -0.338047 -0.800586
601 1 0.0853727 0.422719 0.5 -0.460789 -0.789238
602 1 0.0844551 0.386122 0.5 -0.203602 -0.833587
603 1 0.0128673 0.280135 0.5 -0.089889 -0.965896
604 1 0.116507 0.402751 0.5 -0.386063 -0.840634
605 1 0.0278352 0.513948 0.5 -0.037966 -0.961013
606 1 0.0402599 0.290181 0.5 -0.419471 -0.690054
607 1 0.987466 0.316349 0.5 -0.547544 -0.702977
608 1 0.0162222 0.398823 0.5 -0.29654 -0.876297
609 1 0.0632067 0.520826 0.5 -0.271705 -0.664814
610 1 0.979399 0.310502 0.5 -0.304629 -0.77468
611 1 0.0366758 0.392483 0.5 -0.445679 -0.84386
612 1 0.0228562 0.49673 0.5 -0.23323 -0.871213
613 1 0.102875 0.380134 0.5 -0.301011 -0.923732