ITEM: TIMESTEP
0
ITEM: NUMBER OF ATOMS
10945
ITEM: BOX BOUNDS pp pp pp
-5.8359999999999999e+01 5.8359999999999999e+01
-5.8359999999999999e+01 5.8359999999999999e+01
-5.0000000000000000e-01 5.0000000000000000e-01
ITEM: ATOMS id type xs ys zs c_002[1] c_002[2]
1 1 0.0608349 0.151991 0.5 -0.564004 -0.62073
2 1 0.0546134 0.134607 0.5 -0.106558 -0.897305
3 1 0.0810147 0.053766 0.5 -0.290188 -0.870162
4 1 0.0177811 0.187473 0.5 -0.493307 -0.741473
5 1 0.0794526 0.146502 0.5 -0.364825 -0.697951
6 1 0.0725263 0.186693 0.5 -0.29951 -0.916031
7 1 0.0340882 0.235811 0.5 -0.199423 -0.963339
8 1 0.0764756 0.165399 0.5 0.071448 -0.915512
9 1 0.0799806 0.109694 0.5 -0.199857 -0.976681
10 1 0.98542 0.076388 0.5 -0.23351 -0.868153
11 1 0.0265225 0.0531084 0.5 -0.21275 -0.941932
12 1 0.0370477 0.225541 0.5 0.058515 -0.924496
13 1 0.023658 0.0633232 0.5 -0.376248 -0.820387
14 1 0.0708387 0.112391 0.5 -0.0403682 -0.899314
15 1 0.0366829 0.0962645 0.5 -0.314678 -0.707744
16 1 0.0317141 0.245922 0.5 -0.14308 -0.935812
17 1 0.995375 0.0740629 0.5 -0.377714 -0.817534
18 1 0.0703229 0.0214336 0.5 -0.278354 -0.789138
19 1 0.0290388 0.123598 0.5 -0.356403 -0.43936
20 1 0.000296836 0.0435999 0.5 -0.136363 -0.895883
21 1 0.0961064 0.16036 0.5 -0.198353 -0.957932
22 1 0.0841626 0.173635 0.5 -0.198888 -0.882878
23 1 0.102917 0.0847003 0.5 -0.429979 -0.801272
24 1 0.0223454 0.165745 0.5 -0.420725 -0.761984
25 1 0.0990569 0.104159 0.5 -0.0900955 -0.968857
26 1 0.0271483 0.183389 0.5 -0.683748 -0.672292
27 1 0.0416075 0.111175 0.5 -0.52959 -0.675588
28 1 0.0768725 0.250085 0.5 -0.0478213 -0.917872
29 1 0.0792482 0.229252 0.5 -0.345415 -0.75743
30 1 0.0323933 0.0240149 0.5 -0.317298 -0.757693
31 1 0.0512357 0.154129 0.5 -0.557775 -0.631119
32 1 0.0796122 0.15637 0.5 -0.0843912 -0.753715
33 1 0.0606114 0.19914 0.5 -0.113074 -0.967839
34 1 0.03574 0.188871 0.5 -0.63226 -0.660182
35 1 0.0998006 0.139879 0.5 -0.47844 -0.802468
36 1 0.0845455 0.209978 0.5 -0.240419 -0.874375
37 1 0.0395377 0.0301817 0.5 -0.487342 -0.845154
38 1 0.0239717 0.154924 0.5 -0.379628 -0.836692
39 1 0.993648 0.248815 0.5 -0.412609 -0.881614
40 1 0.0640795 0.131652 0.5 0.226998 -0.885052
41 1 0.0918318 0.134078 0.5 -0.210698 -0.859874
42 1 0.0513046 0.240414 0.5 -0.387655 -0.811969
43 1 0.0892389 0.237375 0.5 -0.403199 -0.578921
44 1 0.0375852 0.0398835 0.5 -0.570794 -0.800867
45 1 0.0166536 0.197558 0.5 -0.0955572 -0.621212
46 1 0.0143318 0.111983 0.5 -0.302603 -0.782241
47 1 0.997245 0.192112 0.5 -0.235749 -0.892992
48 1 0.0861541 0.163542 0.5 -0.0900513 -0.916408
49 1 0.0456454 0.0457958 0.5 -0.632758 -0.723832
50 1 0.993041 0.0837996 0.5 -0.0251011 -0.923036
51 1 0.989602 0.139109 0.5 -0.554829 -0.729352
52 1 0.057873 0.209495 0.5 -0.0577769 -0.962461
53 1 0.0705066 0.0557605 0.5 -0.28598 -0.826912
54 1 0.0667901 0.0743988 0.5 -0.087635 -0.871841
55 1 0.0902112 0.190066 0.5 -0.231918 -0.960473
56 1 0.0973574 0.243114 0.5 -0.272632 -0.859224
57 1 0.0479912 0.1743 0.5 -0.227713 -0.855988
58 1 0.00309421 0.0337756 0.5 -0.198812 -0.876641
59 1 0.0143363 0.0659845 0.5 -0.329266 -0.930309
60 1 0.0118928 0.216372 0.5 -0.384577 -0.780295
61 1 0.051228 0.202309 0.5 -0.0646446 -0.946663
62 1 0.0619385 0.1411 0.5 -0.376871 -0.875957
63 1 0.0792054 0.239748 0.5 -0.276207 -0.760799
64 1 0.014126 0.158981 0.5 -0.520151 -0.751314
65 1 0.0698292 0.148092 0.5 -0.461904 -0.646888
66 1 0.0551828 0.21923 0.5 -0.196678 -0.898017
67 1 0.0153687 0.102466 0.5 -0.466756 -0.804595
68 1 0.0411712 0.204636 0.5 -0.365387 -0.674445
69 1 0.0763601 0.0730442 0.5 0.193308 -0.887606
70 1 0.0269033 0.145048 0.5 -0.391121 -0.842296
71 1 0.046251 0.258913 0.5 -0.16243 -0.925719
72 1 0.987419 0.149191 0.5 -0.664267 -0.711484
73 1 0.092806 0.179912 0.5 -0.22313 -0.893879
74 1 0.00037325 0.0902053 0.5 -0.192631 -0.93261
75 1 0.0482262 0.211826 0.5 -0.15 -0.816813
76 1 0.0507744 0.16446 0.5 -0.266017 -0.814337
77 1 0.0537975 0.0521932 0.5 -0.437317 -0.852147
78 1 0.0112592 0.12182 0.5 -0.396987 -0.798541
79 1 0.975746 0.171699 0.5 -0.32528 -0.859375
80 1 0.0892583 0.143262 0.5 -0.477691 -0.757167
81 1 0.0431695 0.233143 0.5 -0.0271482 -0.91048
82 1 0.00998852 0.227209 0.5 -0.275431 -0.75166
83 1 0.0622917 0.226227 0.5 -0.408426 -0.849912
84 1 0.0605782 0.161623 0.5 -0.284358 -0.786678
85 1 0.0201421 0.128997 0.5 -0.670705 -0.517142
86 1 0.10437 0.121528 0.5 0.114751 -0.895057
87 1 0.0204714 0.119188 0.5 -0.377213 -0.58498
88 1 0.0283002 0.0892069 0.5 -0.372208 -0.856315
89 1 0.0936073 0.216634 0.5 -0.240908 -0.728358
90 1 0.989115 0.231232 0.5 -0.213368 -0.674449
91 1 0.0359269 0.0495982 0.5 -0.513308 -0.782955
92 1 0.993217 0.175359 0.5 -0.150946 -0.906431
93 1 0.0797849 0.0636363 0.5 -0.092819 -0.84586
94 1 0.982577 0.13264 0.5 -0.514077 -0.732517
95 1 0.00431746 0.245807 0.5 -0.473853 -0.846671
96 1 0.0238173 0.203876 0.5 -0.363475 -0.781389
97 1 0.981869 0.215604 0.5 -0.249369 -0.712499
98 1 0.00570608 0.0224621 0.5 -0.150076 -0.918107
99 1 0.114595 0.118938 0.5 -0.43518 -0.757301
100 1 0.104228 0.213248 0.5 -0.390086 -0.750234
101 1 0.00774526 0.140857 0.5 -0.158972 -0.890798
102 1 0.0182164 0.0457643 0.5 -0.374449 -0.84808
103 1 0.10912 0.10179 0.5 -0.25719 -0.893837
104 1 0.0372864 0.262629 0.5 -0.294561 -0.913007
105 1 0.978749 0.152769 0.5 -0.68262 -0.717679
106 1 0.0187364 0.138608 0.5 -0.259672 -0.830861
107 1 0.00201912 0.125414 0.5 -0.416216 -0.836674
108 1 0.0702756 0.196225 0.5 -0.0254388 -0.945735
109 1 0.061124 0.0136699 0.5 -0.135571 -0.957596
110 1 0.00539576 0.199105 0.5 0.000494667 -0.917437
111 1 0.073305 0.0466461 0.5 -0.232253 -0.909522
112 1 0.00433106 0.172556 0.5 -0.0556136 -0.620404
113 1 0.0389839 0.16781 0.5 -0.405964 -0.580243
114 1 0.0699797 0.242345 0.5 -0.302485 -0.691432
115 1 0.0152418 0.148655 0.5 -0.244436 -0.837177
116 1 0.043143 0.158719 0.5 -0.419657 -0.488748
117 1 0.991862 0.212454 0.5 0.0677066 -0.779358
118 1 0.0579561 0.123552 0.5 0.0890855 -0.888034
119 1 0.0525321 0.107458 0.5 -0.525293 -0.797765
120 1 0.074429 0.175635 0.5 -0.214135 -0.927656
121 1 0.98486 0.12152 0.5 -0.442783 -0.672208
122 1 0.0563076 0.256364 0.5 -0.284679 -0.8731
123 1 0.0194829 0.177168 0.5 -0.249219 -0.880288
124 1 0.0710219 0.138726 0.5 0.0851113 -0.844645
125 1 0.978307 0.0588788 0.5 -0.185613 -0.94556
126 1 0.033424 0.0134467 0.5 -0.128274 -0.822637
127 1 0.0575632 0.0327388 0.5 -0.230354 -0.894182
128 1 0.0552978 0.0425619 0.5 -0.305705 -0.90591
129 1 0.0890111 0.153538 0.5 -0.379019 -0.781367
130 1 0.0195163 0.257539 0.5 -0.397755 -0.740233
131 1 0.0819966 0.219313 0.5 -0.0203479 -0.916495
132 1 0.0407337 0.0194286 0.5 -0.407187 -0.6991
133 1 0.0589912 0.0231977 0.5 -0.277015 -0.864683
134 1 0.0413323 0.0649135 0.5 -0.217238 -0.645809
135 1 0.0291405 0.173661 0.5 -0.487951 -0.61267
136 1 0.0233669 0.108493 0.5 -0.477301 -0.795227
137 1 0.0120247 0.029479 0.5 -0.278171 -0.810221
138 1 0.0668315 0.252023 0.5 -0.107017 -0.815732
139 1 0.0450185 0.0559452 0.5 -0.315577 -0.691358
140 1 0.989645 0.221623 0.5 -0.45456 -0.749726
141 1 0.0642015 0.262174 0.5 -0.199044 -0.923839
142 1 0.0678285 0.0305686 0.5 -0.0224076 -0.954977
143 1 0.0392813 0.251905 0.5 -0.192848 -0.921116
144 1 0.0734544 0.0921599 0.5 -0.476785 -0.833263
145 1 0.0751749 0.0373461 0.5 -0.189936 -0.975623
146 1 0.0487799 0.12708 0.5 -0.213216 -0.730974
147 1 0.0120154 0.206041 0.5 -0.0671904 -0.633431
148 1 0.0649526 0.216104 0.5 -0.216026 -0.970083
149 1 0.991452 0.258403 0.5 -0.278462 -0.909963
150 1 0.0645354 0.0847319 0.5 -0.389643 -0.788826
151 1 0.0888468 0.0605311 0.5 -0.227579 -0.947628
152 1 0.00418829 0.161564 0.5 -0.573814 -0.639134
153 1 0.0399 0.216384 0.5 -0.309413 -0.753111
154 1 0.0824518 0.0441016 0.5 -0.397949 -0.883065
155 1 0.082084 0.100197 0.5 -0.284378 -0.86958
156 1 0.0311444 0.161655 0.5 -0.308828 -0.838577
157 1 0.0201866 0.0358129 0.5 -0.283173 -0.886394
158 1 0.0289355 0.255416 0.5 -0.164548 -0.910449
159 1 0.977362 0.16229 0.5 -0.541122 -0.829939
160 1 0.0103414 0.0399315 0.5 -0.562473 -0.805393
161 1 0.00806971 0.09629 0.5 -0.345145 -0.880581
162 1 0.990582 0.0462051 0.5 0.0489316 -0.987281
163 1 0.0593346 0.0685794 0.5 -0.524251 -0.816323
164 1 0.053501 0.265542 0.5 -0.426593 -0.802751
165 1 0.0629161 0.0496873 0.5 -0.302558 -0.929725
166 1 0.019157 0.0824792 0.5 -0.420338 -0.664836
167 1 0.0973875 0.196429 0.5 -0.137467 -0.96257
168 1 0.0083632 0.0493966 0.5 -0.448286 -0.859135
169 1 0.100793 0.130403 0.5 -0.13501 -0.795265
170 1 0.0149963 0.020514 0.5 -0.235427 -0.747234
171 1 0.0911612 0.0507854 0.5 -0.401999 -0.808535
172 1 0.00825944 0.189565 0.5 -0.0932679 -0.930568
173 1 0.0616199 0.104208 0.5 -0.236191 -0.873639
174 1 0.0538412 0.0973466 0.5 -0.471163 -0.700663
175 1 0.0192636 0.223133 0.5 -0.522468 -0.820446
176 1 0.98659 0.204466 0.5 0.0315342 -0.707251
177 1 0.0585431 0.246509 0.5 -0.49524 -0.817037
178 1 0.0318463 0.209702 0.5 -0.655762 -0.676834
179 1 0.0765742 0.203636 0.5 -0.0710444 -0.927097
180 1 0.0943366 0.16997 0.5 -0.426808 -0.867758
181 1 0.0642883 0.0952897 0.5 -0.278749 -0.795223
182 1 0.0282073 0.134566 0.5 -0.712687 -0.650923
183 1 0.993227 0.0359725 0.5 0.00441685 -0.983303
184 1 0.093515 0.0874945 0.5 -0.250391 -0.773334
185 1 0.0321148 0.114382 0.5 -0.453453 -0.769384
186 1 0.998585 0.229884 0.5 -0.029688 -0.891912
187 1 0.0646629 0.0403575 0.5 -0.109988 -0.899408
188 1 0.0869793 0.0705368 0.5 0.107607 -0.933372
189 1 0.0850848 0.126096 0.5 -0.0721817 -0.918868
190 1 0.982239 0.26171 0.5 -0.44095 -0.894629
191 1 0.00297707 0.209125 0.5 -0.218146 -0.951313
192 1 0.0606797 0.235956 0.5 -0.668371 -0.650465
193 1 0.994971 0.119201 0.5 -0.348933 -0.739761
194 1 0.081324 0.137073 0.5 0.0175424 -0.891871
195 1 0.00274214 0.256004 0.5 -0.244305 -0.811672
196 1 0.0491414 0.249845 0.5 -0.0515051 -0.955039
197 1 0.0035944 0.0800256 0.5 -0.441021 -0.752341
198 1 0.0885628 0.227308 0.5 -0.125118 -0.463215
199 1 0.00524845 0.105735 0.5 -0.360606 -0.845272
200 1 0.109095 0.137147 0.5 -0.216345 -0.809484
201 1 0.0283906 0.0437167 0.5 -0.37965 -0.821387
202 1 0.0748932 0.129999 0.5 0.258299 -0.848036
203 1 0.0669408 0.206095 0.5 -0.0419119 -0.940489
204 1 0.0185477 0.0919543 0.5 -0.467391 -0.696792
205 1 0.0431946 0.147441 0.5 -0.634785 -0.6378
206 1 0.079766 0.193059 0.5 -0.266684 -0.930756
207 1 0.990311 0.185055 0.5 -0.220109 -0.885562
208 1 0.0574972 0.077947 0.5 -0.570746 -0.741748
209 1 0.0503626 0.116655 0.5 -0.483417 -0.670994
210 1 0.0857745 0.246923 0.5 -0.27271 -0.776634
211 1 0.0605611 0.114203 0.5 -0.0619489 -0.881301
212 1 0.995561 0.239345 0.5 -0.15886 -0.853311
213 1 0.97805 0.198641 0.5 -0.249208 -0.880375
214 1 0.0107746 0.131392 0.5 -0.314454 -0.774206
215 1 0.0525171 0.230692 0.5 -0.373919 -0.729644
216 1 0.991903 0.128152 0.5 -0.265515 -0.850158
217 1 0.986461 0.159103 0.5 -0.552857 -0.788699
218 1 0.0356846 0.141315 0.5 -0.581285 -0.795253
219 1 0.00986324 0.262402 0.5 -0.458713 -0.664469
220 1 0.0231054 0.0261862 0.5 -0.206547 -0.818711
221 1 0.998079 0.144376 0.5 -0.650265 -0.686388
222 1 0.0742682 0.213319 0.5 -0.238161 -0.941383
223 1 0.0144816 0.242136 0.5 -0.278922 -0.84769
224 1 0.988171 0.195284 0.5 -0.429808 -0.897941
225 1 0.069695 0.0650472 0.5 -0.117307 -0.74667
226 1 0.0854102 0.257052 0.5 -0.169057 -0.710162
227 1 0.0304353 0.0787158 0.5 -0.489732 -0.825151
228 1 0.0516275 0.0631799 0.5 -0.14351 -0.7924
229 1 0.0971372 0.113905 0.5 -0.00253253 -0.960344
230 1 0.0529343 0.144452 0.5 -0.426551 -0.882552
231 1 0.0911027 0.0965461 0.5 -0.196642 -0.923302
232 1 0.106312 0.11198 0.5 -0.125752 -0.932281
233 1 0.980694 0.189149 0.5 -0.233733 -0.885601
234 1 0.999748 0.182859 0.5 0.143298 -0.873429
235 1 0.0123595 0.0760039 0.5 -0.390104 -0.852617
236 1 0.973008 0.181786 0.5 -0.282186 -0.86487
237 1 0.101893 0.177744 0.5 -0.200903 -0.927803
238 1 0.985132 0.168879 0.5 -0.402974 -0.885522
239 1 0.0647302 0.179121 0.5 -0.210573 -0.961256
240 1 0.0699757 0.158149 0.5 -0.281918 -0.667071
241 1 0.996189 0.202274 0.5 -0.103921 -0.842419
242 1 0.995322 0.108533 0.5 -0.52464 -0.682372
243 1 0.0530609 0.191662 0.5 -0.232205 -0.906799
244 1 0.0100514 0.180261 0.5 0.0350632 -0.903518
245 1 0.0873451 0.116417 0.5 -0.193566 -0.971489
246 1 0.0417847 0.242393 0.5 -0.194781 -0.918656
247 1 0.997486 0.052857 0.5 -0.371143 -0.720474
248 1 0.000396487 0.219039 0.5 -0.231549 -0.901629
249 1 0.982629 0.179061 0.5 -0.255632 -0.91966
250 1 0.999744 0.134537 0.5 -0.463299 -0.830373
251 1 0.0165276 0.0562152 0.5 -0.235752 -0.934628
252 1 0.994876 0.165653 0.5 -0.611866 -0.763673
253 1 0.0445167 0.101996 0.5 -0.556923 -0.636753
254 1 0.0440469 0.195571 0.5 -0.406954 -0.82807
255 1 0.0485834 0.0721385 0.5 -0.433338 -0.694475
256 1 0.0328971 0.0598653 0.5 -0.39426 -0.731809
257 1 0.0342142 0.152004 0.5 -0.391427 -0.776304
258 1 0.0880357 0.199809 0.5 -0.197939 -0.918603
259 1 0.00602179 0.151383 0.5 -0.449841 -0.822818
260 1 0.00460262 0.0697286 0.5 -0.585422 -0.738137
261 1 0.0558913 0.0880831 0.5 -0.50872 -0.84336
262 1 0.0383308 0.0851235 0.5 -0.483756 -0.843276
263 1 0.03335 0.105173 0.5 -0.293687 -0.834879
264 1 0.010399 0.086948 0.5 -0.4644 -0.714547
265 1 0.0474329 0.0363571 0.5 -0.460882 -0.861718
266 1 0.986169 0.242819 0.5 -0.136833 -0.918728
267 1 0.0375321 0.178914 0.5 -0.785504 -0.538329
268 1 0.0177496 0.232698 0.5 -0.375301 -0.819897
269 1 0.046319 0.223428 0.5 -0.0302565 -0.845957
270 1 0.0626375 0.189269 0.5 -0.158538 -0.970575
271 1 0.0921538 0.263935 0.5 -0.191236 -0.947042
272 1 0.967555 0.165736 0.5 -0.318411 -0.895506
273 1 0.0936267 0.0779073 0.5 -0.144306 -0.72317
274 1 0.0892828 0.106974 0.5 -0.275121 -0.949473
275 1 0.0744771 0.0823567 0.5 -0.322339 -0.858548
276 1 0.0222653 0.248352 0.5 -0.0837962 -0.940405
277 1 0.00612904 0.236146 0.5 -0.230589 -0.818874
278 1 0.0455074 0.183862 0.5 -0.358655 -0.672861
279 1 0.0574566 0.171707 0.5 0.0200144 -0.983371
280 1 0.0610556 0.0590194 0.5 -0.520309 -0.79866
281 1 0.044763 0.137968 0.5 -0.297156 -0.868441
282 1 0.98098 0.225664 0.5 -0.786361 -0.586833
283 1 0.0257847 0.192925 0.5 -0.678482 -0.671326
284 1 0.0833457 0.089159 0.5 -0.376339 -0.70489
285 1 0.0296087 0.0333073 0.5 -0.185157 -0.899443
286 1 0.0331448 0.199343 0.5 -0.584376 -0.710733
287 1 0.996477 0.156195 0.5 -0.643005 -0.68371
288 1 0.0551648 0.182104 0.5 -0.0298307 -0.956788
289 1 0.0698881 0.232876 0.5 -0.590285 -0.688163
290 1 0.0499183 0.0265833 0.5 -0.459559 -0.863075
291 1 0.0116356 0.252073 0.5 -0.49691 -0.786513
292 1 0.0843732 0.0348301 0.5 -0.355342 -0.880959
293 1 0.0966721 0.0681355 0.5 -0.184987 -0.911684
294 1 0.0371589 0.130869 0.5 -0.254826 -0.843324
295 1 0.0671534 0.168922 0.5 -0.134064 -0.954762
296 1 0.0350891 0.271782 0.5 -0.0843112 -0.939557
297 1 0.997443 0.0625544 0.5 -0.482073 -0.695879
298 1 0.100041 0.187197 0.5 -0.141983 -0.974802
299 1 0.0227483 0.0734397 0.5 -0.356132 -0.711057
300 1 0.00625315 0.0586772 0.5 -0.453336 -0.777843
301 1 0.0270617 0.229204 0.5 -0.360751 -0.891223
302 1 0.0773984 0.0279618 0.5 -0.220677 -0.957883
303 1 0.989604 0.0930486 0.5 -0.107367 -0.90866
304 1 0.0517611 0.0167374 0.5 -0.21902 -0.944497
305 1 0.0250785 0.238803 0.5 -0.183904 -0.944543
306 1 0.986698 0.112388 0.5 -0.704474 -0.614129
307 1 0.0778765 0.119455 0.5 -0.075852 -0.973681
308 1 0.979433 0.235107 0.5 -0.35171 -0.847657
309 1 0.0984332 0.150503 0.5 -0.302807 -0.85772
310 1 0.0943361 0.12312 0.5 0.0830849 -0.941593
311 1 0.0240275 0.0156992 0.5 -0.154161 -0.75548
312 1 0.0718862 0.222534 0.5 -0.304859 -0.93558
313 1 0.0675458 0.121717 0.5 0.357098 -0.929573
314 1 0.0255932 0.0983207 0.5 -0.165995 -0.91072
315 1 0.048067 0.0821252 0.5 -0.562384 -0.703508
316 1 0.989349 0.267859 0.5 -0.382629 -0.883333
317 1 0.101286 0.26118 0.5 -0.140573 -0.844052
318 1 0.0546331 0.00666979 0.5 -0.186162 -0.935978
319 1 0.0277195 0.265016 0.5 -0.104525 -0.922247
320 1 0.0835006 0.0794127 0.5 -0.164822 -0.724469
321 1 0.00380807 0.115255 0.5 -0.529841 -0.817024
322 1 0.99921 0.2652 0.5 -0.154063 -0.89448
323 1 0.0817729 0.18294 0.5 -0.276701 -0.921982
324 1 0.0213541 0.213539 0.5 -0.431413 -0.820358
325 1 0.0134334 0.169781 0.5 -0.241408 -0.771924
326 1 0.987681 0.103027 0.5 -0.558069 -0.744331
327 1 0.983946 0.252474 0.5 -0.324139 -0.899055
328 1 0.975882 0.0684169 0.5 -0.455019 -0.659904
329 1 0.0299383 0.219147 0.5 -0.353123 -0.839783
330 1 0.0721967 0.102144 0.5 -0.190674 -0.855705
331 1 0.0453452 0.0917785 0.5 -0.550877 -0.659147
332 1 0.0320057 0.0693665 0.5 -0.729134 -0.647825
333 1 0.986238 0.0653202 0.5 -0.345301 -0.854545
334 1 0.0397199 0.075874 0.5 -0.574953 -0.789345
335 1 0.0738609 0.259838 0.5 0.13766 -0.981193
336 1 0.0407868 0.121978 0.5 -0.313183 -0.530824
337 1 0.998031 0.0995522 0.5 -0.287683 -0.912331
338 1 0.0145145 0.491427 0.5 -0.611555 -0.769948
339 1 0.0978996 0.445702 0.5 -0.327475 -0.844816
340 1 0.994734 0.497447 0.5 -0.357752 -0.898197
341 1 0.0263009 0.478797 0.5 -0.381677 -0.844603
342 1 0.106639 0.405622 0.5 -0.489335 -0.697765
343 1 0.00837779 0.391614 0.5 -0.192309 -0.952332
344 1 0.0797357 0.360945 0.5 -0.320889 -0.826797
345 1 0.0620553 0.402696 0.5 -0.159238 -0.948817
346 1 0.0644927 0.428394 0.5 -0.386202 -0.810558
347 1 0.974059 0.347578 0.5 -0.0976257 -0.884184
348 1 0.107564 0.488174 0.5 -0.494436 -0.650051
349 1 0.000656168 0.311782 0.5 -0.21587 -0.933312
350 1 0.0231632 0.369246 0.5 -0.348184 -0.864883
351 1 0.0519993 0.405768 0.5 0.15073 -0.890281
352 1 0.0235595 0.488407 0.5 -0.460195 -0.784416
353 1 0.0758004 0.416953 0.5 0.313669 -0.766719
354 1 0.00333862 0.37469 0.5 -0.127438 -0.967998
355 1 0.0649713 0.47572 0.5 -0.266928 -0.856453
356 1 0.986058 0.28812 0.5 -0.430702 -0.886213
357 1 0.00677692 0.400979 0.5 -0.199772 -0.914253
358 1 0.0951347 0.29002 0.5 -0.384145 -0.831384
359 1 0.0871265 0.414656 0.5 -0.179593 -0.81652
360 1 0.0725768 0.353277 0.5 -0.105589 -0.950039
361 1 0.104868 0.323224 0.5 -0.242706 -0.693005
362 1 0.0891792 0.402908 0.5 -0.383262 -0.762114
363 1 0.0608756 0.319124 0.5 -0.59406 -0.682546
364 1 0.0648608 0.344998 0.5 -0.259029 -0.714573
365 1 0.0854616 0.376802 0.5 -0.3117 -0.926368
366 1 0.104403 0.46142 0.5 -0.238524 -0.842814
367 1 0.0134511 0.500808 0.5 -0.338985 -0.797552
368 1 0.0314208 0.458092 0.5 0.0865506 -0.951338
369 1 0.0484234 0.378269 0.5 -0.325605 -0.775721
370 1 0.0696735 0.363205 0.5 -0.224101 -0.819166
371 1 0.0246863 0.450578 0.5 -0.11747 -0.744034
372 1 0.0073395 0.271897 0.5 -0.517977 -0.742297
373 1 0.0152628 0.325749 0.5 -0.259802 -0.943751
374 1 0.0466827 0.518144 0.5 -0.248839 -0.936711
375 1 0.0551106 0.396035 0.5 -0.0212394 -0.957415
376 1 0.0808339 0.266521 0.5 0.0454645 -0.848719
377 1 0.0160365 0.361967 0.5 -0.210419 -0.959849
378 1 0.0159728 0.482017 0.5 -0.271701 -0.914929
379 1 0.0828609 0.304448 0.5 -0.450858 -0.726526
380 1 0.0358957 0.438285 0.5 -0.15689 -0.914607
381 1 0.0928642 0.299888 0.5 -0.53061 -0.72592
382 1 0.0343255 0.319554 0.5 -0.386454 -0.770034
383 1 0.0633127 0.356348 0.5 -0.147781 -0.938312
384 1 0.000438978 0.431999 0.5 -0.409502 -0.733274
385 1 0.0885354 0.319143 0.5 -0.513831 -0.612551
386 1 0.992536 0.424238 0.5 -0.141154 -0.981921
387 1 0.0530892 0.313246 0.5 -0.253961 -0.805749
388 1 0.0483094 0.295946 0.5 -0.0861864 -0.957131
389 1 0.0320375 0.41054 0.5 -0.433467 -0.777855
390 1 0.0571073 0.385793 0.5 -0.182618 -0.961439
391 1 0.0263375 0.441396 0.5 -0.40495 -0.886025
392 1 0.0554177 0.4324 0.5 -0.608688 -0.733169
393 1 0.109229 0.396235 0.5 -0.542807 -0.645658
394 1 0.988147 0.324568 0.5 0.0623324 -0.985358
395 1 0.0619761 0.27205 0.5 -0.262162 -0.923945
396 1 0.0915545 0.476742 0.5 -0.245333 -0.803565
397 1 0.0414597 0.407163 0.5 -0.0422382 -0.812273
398 1 0.070727 0.316513 0.5 -0.242779 -0.913109
399 1 0.112666 0.421422 0.5 -0.340679 -0.779955
400 1 0.048299 0.545106 0.5 -0.209403 -0.822528
401 1 0.995425 0.450695 0.5 -0.126153 -0.863917
402 1 0.0129599 0.287249 0.5 -0.608267 -0.694075
403 1 0.0489538 0.414647 0.5 -0.346982 -0.729752
404 1 0.0717919 0.446544 0.5 -0.127173 -0.859692
405 1 0.0182629 0.266977 0.5 -0.309534 -0.673384
406 1 0.0772882 0.462584 0.5 -0.416757 -0.859755
407 1 0.0558873 0.514838 0.5 -0.579729 -0.778317
408 1 0.0668148 0.382996 0.5 -0.131848 -0.976903
409 1 0.00396408 0.41181 0.5 -0.203085 -0.957692
410 1 0.0787857 0.45304 0.5 -0.463856 -0.838097
411 1 0.0126222 0.335697 0.5 -0.336508 -0.900217
412 1 0.0909057 0.393721 0.5 -0.304444 -0.933081
413 1 0.049208 0.461753 0.5 0.263996 -0.927594
414 1 0.0371513 0.521083 0.5 -0.0949656 -0.881324
415 1 0.00114845 0.347901 0.5 0.0221468 -0.968437
416 1 0.0110621 0.511386 0.5 -0.172971 -0.939824
417 1 0.00337799 0.338384 0.5 -0.174781 -0.947556
418 1 0.0604648 0.366387 0.5 -0.214831 -0.814376
419 1 0.984784 0.417167 0.5 -0.206411 -0.942302
420 1 0.107713 0.525934 0.5 -0.107456 -0.772248
421 1 0.995998 0.285006 0.5 -0.546876 -0.818736
422 1 0.0441856 0.269231 0.5 -0.517284 -0.70133
423 1 0.990262 0.479906 0.5 -0.130394 -0.862601
424 1 0.0572178 0.33924 0.5 -0.568934 -0.766505
425 1 0.983163 0.426662 0.5 -0.205639 -0.944288
426 1 0.0864866 0.458659 0.5 -0.596609 -0.778178
427 1 0.0131374 0.408394 0.5 -0.0587411 -0.946785
428 1 0.101195 0.436661 0.5 -0.454515 -0.670027
429 1 0.0823269 0.349956 0.5 -0.348243 -0.899522
430 1 0.990269 0.433565 0.5 -0.078044 -0.929457
431 1 0.0188639 0.388234 0.5 -0.0521782 -0.959733
432 1 0.0243622 0.322226 0.5 -0.0895845 -0.90073
433 1 0.0300887 0.504644 0.5 -0.350542 -0.902985
434 1 0.994618 0.295575 0.5 -0.472425 -0.810039
435 1 0.0948543 0.420731 0.5 -0.660062 -0.638099
436 1 0.983872 0.298024 0.5 -0.463294 -0.693008
437 1 0.00633096 0.485369 0.5 -0.163293 -0.854162
438 1 0.0799068 0.314547 0.5 -0.382729 -0.554719
439 1 0.975599 0.420414 0.5 -0.329584 -0.925097
440 1 0.0436113 0.315254 0.5 -0.248445 -0.857116
441 1 0.04044 0.372314 0.5 -0.34055 -0.867247
442 1 0.0592223 0.411661 0.5 -0.106655 -0.943174
443 1 0.0476689 0.388676 0.5 -0.312562 -0.823035
444 1 0.0957271 0.326324 0.5 -0.47123 -0.800981
445 1 0.0289051 0.430326 0.5 -0.313762 -0.577543
446 1 0.0811343 0.397437 0.5 -0.381575 -0.814672
447 1 0.0616328 0.485162 0.5 -0.239708 -0.874319
448 1 0.994493 0.414976 0.5 -0.127792 -0.960643
449 1 0.0206015 0.425156 0.5 -0.719184 -0.320553
450 1 0.0967108 0.4929 0.5 -0.310908 -0.725551
451 1 0.0724029 0.518267 0.5 -0.392047 -0.886156
452 1 0.984109 0.344272 0.5 -0.609395 -0.769798
453 1 0.00607647 0.365402 0.5 -0.118597 -0.938666
454 1 0.00369447 0.457414 0.5 -0.130605 -0.933682
455 1 0.0718839 0.482149 0.5 -0.105469 -0.963679
456 1 0.0727383 0.307099 0.5 -0.10642 -0.965804
457 1 0.0829155 0.433556 0.5 -0.37033 -0.852959
458 1 0.124519 0.408886 0.5 -0.43141 -0.77754
459 1 0.100264 0.39121 0.5 -0.559159 -0.628239
460 1 0.0751491 0.47162 0.5 -0.117303 -0.917271
461 1 0.0783617 0.370312 0.5 -0.444338 -0.8679
462 1 0.050439 0.285903 0.5 -0.1676 -0.892022
463 1 0.98044 0.436434 0.5 -0.141166 -0.970988
464 1 0.0928909 0.384552 0.5 -0.216822 -0.93365
465 1 0.990338 0.516573 0.5 -0.261647 -0.86722
466 1 0.0961373 0.410556 0.5 -0.537261 -0.701974
467 1 0.102893 0.425589 0.5 -0.792024 -0.54538
468 1 0.99882 0.393829 0.5 -0.287488 -0.902207
469 1 0.0762622 0.497938 0.5 -0.135006 -0.925992
470 1 0.986372 0.453449 0.5 -0.357594 -0.889628
471 1 0.987039 0.491149 0.5 -0.260801 -0.824717
472 1 0.11049 0.431292 0.5 -0.456811 -0.707494
473 1 0.0865573 0.495599 0.5 0.0368386 -0.941589
474 1 0.991366 0.387002 0.5 -0.373246 -0.837501
475 1 0.0345582 0.484968 0.5 -0.344898 -0.848322
476 1 0.0317353 0.281445 0.5 -0.0728323 -0.873821
477 1 0.0303174 0.291897 0.5 -0.434712 -0.756684
478 1 0.00511774 0.281688 0.5 -0.650898 -0.678081
479 1 0.011054 0.345777 0.5 -0.167832 -0.876424
480 1 0.991431 0.470109 0.5 -0.219028 -0.929497
481 1 0.0239027 0.405218 0.5 -0.412897 -0.690171
482 1 0.987246 0.371181 0.5 -0.000622543 -0.930448
483 1 0.0939178 0.501718 0.5 -0.394804 -0.858097
484 1 0.0574669 0.50425 0.5 -0.542586 -0.753202
485 1 0.0613177 0.531535 0.5 -0.528246 -0.82276
486 1 0.0558045 0.30281 0.5 -0.0686214 -0.972801
487 1 0.0682211 0.289707 0.5 -0.200065 -0.823445
488 1 0.0440745 0.278984 0.5 -0.149691 -0.639661
489 1 0.0561996 0.469371 0.5 -0.0234203 -0.86937
490 1 0.0535659 0.479472 0.5 -0.00958946 -0.850244
491 1 0.0384107 0.345422 0.5 -0.147393 -0.923226
492 1 0.0249469 0.274201 0.5 0.132531 -0.983862
493 1 0.0356705 0.354959 0.5 -0.0735376 -0.957861
494 1 0.0902786 0.43994 0.5 -0.25627 -0.913339
495 1 0.059941 0.459793 0.5 -0.0972323 -0.77787
496 1 0.108045 0.314231 0.5 -0.0719407 -0.849252
497 1 0.0882378 0.449422 0.5 -0.506151 -0.851005
498 1 0.0816756 0.478743 0.5 -0.00309358 -0.958543
499 1 0.983779 0.381161 0.5 -0.342148 -0.824754
500 1 0.104125 0.4163 0.5 -0.673751 -0.617314
501 1 0.00494497 0.495004 0.5 -0.411349 -0.823763
502 1 0.994013 0.378038 0.5 -0.165015 -0.963627
503 1 0.0736419 0.390292 0.5 -0.173902 -0.966818
504 1 0.0636912 0.438173 0.5 -0.38968 -0.73959
505 1 0.0449698 0.398 0.5 0.314305 -0.920534
506 1 0.110324 0.385992 0.5 -0.763962 -0.523161
507 1 0.00878876 0.438097 0.5 -0.422529 -0.813759
508 1 0.0983566 0.400729 0.5 -0.387386 -0.772921
509 1 0.018548 0.35167 0.5 -0.164816 -0.947994
510 1 0.0421138 0.454876 0.5 -0.166945 -0.874168
511 1 0.0781231 0.276664 0.5 -0.187612 -0.883876
512 1 0.0393198 0.501739 0.5 -0.39956 -0.784291
513 1 0.0346027 0.449185 0.5 -0.21469 -0.765798
514 1 0.994798 0.331257 0.5 -0.0975827 -0.947062
515 1 0.0527907 0.275145 0.5 -0.481595 -0.719686
516 1 0.0291495 0.301787 0.5 -0.480444 -0.811806
517 1 0.00122725 0.513963 0.5 0.0256751 -0.910223
518 1 0.0450616 0.352775 0.5 -0.118231 -0.915376
519 1 0.997612 0.275482 0.5 -0.444479 -0.880745
520 1 0.0561053 0.349324 0.5 -0.480466 -0.767167
521 1 0.990084 0.397656 0.5 -0.205111 -0.859254
522 1 0.0565029 0.421112 0.5 -0.464751 -0.703794
523 1 0.0366288 0.474206 0.5 -0.447956 -0.83902
524 1 0.0957794 0.455333 0.5 -0.549791 -0.79815
525 1 0.0594333 0.282619 0.5 -0.356567 -0.814454
526 1 0.00967698 0.427926 0.5 -0.601639 -0.717976
527 1 0.105701 0.451966 0.5 -0.356661 -0.879529
528 1 0.00164475 0.421605 0.5 -0.355064 -0.888264
529 1 0.0792945 0.488878 0.5 -0.0225253 -0.972225
530 1 0.0797371 0.323934 0.5 -0.334883 -0.659185
531 1 0.0844602 0.469415 0.5 -0.166114 -0.89586
532 1 0.125254 0.399365 0.5 -0.535707 -0.807373
533 1 0.0742893 0.344054 0.5 -0.0325317 -0.802585
534 1 0.996562 0.487188 0.5 -0.00779213 -0.869885
535 1 0.0459366 0.471664 0.5 0.0324533 -0.976477
536 1 0.989086 0.361819 0.5 -0.121733 -0.775586
537 1 0.0197221 0.508268 0.5 -0.301436 -0.818271
538 1 0.089827 0.486363 0.5 -0.0947212 -0.943106
539 1 0.032036 0.494223 0.5 -0.274383 -0.838183
540 1 0.00139724 0.467323 0.5 -0.0731547 -0.907085
541 1 0.0530473 0.452007 0.5 -0.235598 -0.726027
542 1 0.0916653 0.347124 0.5 -0.307185 -0.930191
543 1 0.00619975 0.448246 0.5 -0.041934 -0.981879
544 1 0.0536334 0.359099 0.5 -0.142518 -0.926709
545 1 0.988567 0.44419 0.5 -0.111784 -0.955799
546 1 0.0210511 0.342253 0.5 -0.480854 -0.836142
547 1 0.017912 0.314492 0.5 -0.292269 -0.765122
548 1 0.0690463 0.279535 0.5 -0.353578 -0.862502
549 1 0.0938298 0.337372 0.5 -0.431006 -0.894449
550 1 0.0903832 0.520668 0.5 -0.331415 -0.876083
551 1 0.100858 0.471528 0.5 -0.184266 -0.783684
552 1 0.0899846 0.356568 0.5 -0.291412 -0.904024
553 1 0.987849 0.278514 0.5 -0.475717 -0.86302
554 1 0.0192236 0.471893 0.5 -0.393583 -0.814859
555 1 0.0647719 0.299853 0.5 0.0153081 -0.92477
556 1 0.0404277 0.419214 0.5 -0.260158 -0.643587
557 1 0.119665 0.427978 0.5 -0.062332 -0.918583
558 1 0.048196 0.426114 0.5 -0.527774 -0.677203
559 1 0.0435923 0.528035 0.5 -0.0606441 -0.962022
560 1 0.0746239 0.297345 0.5 -0.0503908 -0.945128
561 1 0.030365 0.339012 0.5 -0.479869 -0.871446
562 1 0.108746 0.442274 0.5 -0.266735 -0.89452
563 1 0.0211175 0.461385 0.5 -0.352436 -0.855048
564 1 0.0944281 0.464817 0.5 -0.435133 -0.817038
565 1 0.0460617 0.435374 0.5 -0.288898 -0.936988
566 1 0.00294938 0.504499 0.5 -0.354582 -0.917709
567 1 0.0693269 0.325834 0.5 -0.189685 -0.890607
568 1 0.0863946 0.330994 0.5 -0.430774 -0.81557
569 1 0.117853 0.439584 0.5 -0.252619 -0.903227
570 1 0.993092 0.507109 0.5 -0.278737 -0.921729
571 1 0.0437629 0.480833 0.5 -0.0770884 -0.854541
572 1 0.0429144 0.362417 0.5 -0.177238 -0.908416
573 1 0.0337424 0.399928 0.5 -0.212507 -0.552212
574 1 0.102322 0.296797 0.5 -0.22203 -0.96741
575 1 0.045955 0.304976 0.5 -0.0389206 -0.953853
576 1 0.00527391 0.328668 0.5 -0.142811 -0.970178
577 1 0.0484883 0.508652 0.5 -0.610825 -0.722457
578 1 0.0493469 0.332849 0.5 -0.203252 -0.891822
579 1 0.993435 0.305197 0.5 -0.441138 -0.816114
580 1 0.0200775 0.415682 0.5 -0.373765 -0.416649
581 1 0.0705462 0.527682 0.5 -0.510355 -0.847196
582 1 0.0188842 0.435171 0.5 -0.485833 -0.810934
583 1 0.0222712 0.332255 0.5 -0.423502 -0.882064
584 1 0.998995 0.441897 0.5 -0.13558 -0.863319
585 1 0.0975438 0.526723 0.5 -0.110826 -0.733616
586 1 0.111649 0.376464 0.5 -0.460308 -0.794861
587 1 0.0324366 0.329041 0.5 -0.450346 -0.873129
588 1 0.999855 0.478121 0.5 0.0682145 -0.907293
589 1 0.9779 0.410323 0.5 -0.285667 -0.924941
590 1 0.0390926 0.511542 0.5 -0.400726 -0.771171
591 1 0.965888 0.423547 0.5 -0.237289 -0.949377
592 1 0.0331286 0.364577 0.5 -0.25105 -0.833175
593 1 0.00198878 0.301496 0.5 -0.423738 -0.847193
594 1 0.095716 0.373079 0.5 -0.254594 -0.831646
595 1 0.0843231 0.294837 0.5 -0.351722 -0.710857
596 1 0.00105037 0.384471 0.5 -0.135247 -0.986157
597 1 0.0108444 0.418823 0.5 -0.410108 -0.811011
598 1 0.0131541 0.454926 0.5 -0.201347 -0.904659
599 1 0.0185961 0.518349 0.5 -0.358846 -0.733471
600 1 0.0909471 0.309362 0.5 -0.508027 -0.736344
601 1 0.083509 0.424036 0.5 -0.250348 -0.744073
602 1 0.0834606 0.387094 0.5 -0.248617 -0.959552
603 1 0.0154221 0.276976 0.5 -0.298558 -0.785007
604 1 0.115892 0.402824 0.5 -0.511186 -0.745334
605 1 0.0274799 0.514077 0.5 -0.487778 -0.709017
606 1 0.0399452 0.287742 0.5 -0.101069 -0.762717
607 1 0.991247 0.314796 0.5 0.0456535 -0.97304
608 1 0.0158753 0.398282 0.5 -0.179979 -0.960273
609 1 0.0632908 0.521251 0.5 -0.488227 -0.851438
610 1 0.984137 0.307498 0.5 -0.207328 -0.675164
611 1 0.0381187 0.391253 0.5 -0.218012 -0.527648
612 1 0.0227451 0.498027 0.5 -0.417268 -0.821099