LAMMPS (11 Aug 2017)
Created orthogonal box = (-58.36 -58.36 -0.5) to (58.36 58.36 0.5)
  8 by 4 by 1 MPI processor grid
Neighbor list info ...
  update every 1 steps, delay 10 steps, check yes
  max neighbors/atom: 2000, page size: 100000
  master list distance cutoff = 1.42246
  ghost atom cutoff = 1.42246
  binsize = 0.711231, bins = 165 165 2
  1 neighbor lists, perpetual/occasional/extra = 1 0 0
  (1) pair lj/cut, perpetual
      attributes: half, newton on
      pair build: half/bin/atomonly/newton
      stencil: half/bin/2d/newton
      bin: standard
Created 11000 atoms
Lattice spacing in x,y,z = 1.69904 2.94283 1.69904
Deleted 258 atoms, new total = 10742
Created 55 atoms
Created 203 atoms
WARNING: Using 'neigh_modify every 1 delay 0 check yes' setting during minimization (../min.cpp:168)
Setting up cg style minimization ...
  Unit style    : lj
  Current step  : 0
Per MPI rank memory allocation (min/avg/max) = 4.178 | 4.179 | 4.179 Mbytes
Step Temp E_pair E_mol TotEng Press 
       0            0 4.9809455e+23            0 4.9809455e+23 2.4130436e+24 
     412            0 3.8751995e-06            0 3.8751995e-06  0.005497087 
Loop time of 0.0947188 on 32 procs for 412 steps with 11000 atoms

97.6% CPU use with 32 MPI tasks x no OpenMP threads

Minimization stats:
  Stopping criterion = energy tolerance
  Energy initial, next-to-last, final = 
     4.98094549618e+23  3.87516276796e-06  3.87519953342e-06
  Force two-norm initial, final = 1.68508e+31 0.790202
  Force max component initial, final = 1.19152e+31 0.0815564
  Final line search alpha, max atom move = 0.0132908 0.00108395
  Iterations, force evaluations = 412 1383

MPI task timing breakdown:
Section |  min time  |  avg time  |  max time  |%varavg| %total
---------------------------------------------------------------
Pair    | 0.020875   | 0.032      | 0.041685   |   2.9 | 33.78
Neigh   | 0.0039701  | 0.0050294  | 0.0055225  |   0.5 |  5.31
Comm    | 0.013405   | 0.020268   | 0.034421   |   3.6 | 21.40
Output  | 0          | 0          | 0          |   0.0 |  0.00
Modify  | 0.0011194  | 0.001367   | 0.0015109  |   0.2 |  1.44
Other   |            | 0.03606    |            |       | 38.07

Nlocal:    343.75 ave 363 max 287 min
Histogram: 1 0 2 1 0 1 2 8 11 6
Nghost:    107.156 ave 115 max 85 min
Histogram: 1 0 0 3 1 2 2 4 10 9
Neighs:    905.344 ave 1017 max 662 min
Histogram: 1 0 2 1 2 1 5 12 4 4

Total # of neighbors = 28971
Ave neighs/atom = 2.63373
Neighbor list builds = 71
Dangerous builds = 0
55 atoms in group IN
10945 atoms in group OUT
Setting up Verlet run ...
  Unit style    : lj
  Current step  : 0
  Time step     : 0.005
Per MPI rank memory allocation (min/avg/max) = 5.149 | 5.157 | 5.167 Mbytes
Step Temp E_pair E_mol TotEng Press 
       0            0 3.8751995e-06            0 3.8751995e-06  0.005497087 
  100000   0.02472455 0.0066260259            0  0.031348329   0.28515251 
  200000  0.024885587 0.0069904053            0   0.03187373   0.29375189 
  300000  0.024764805 0.0066253725            0  0.031387926   0.28077713 
  400000  0.024930637 0.0061692803            0  0.031097651   0.26852697 
  500000  0.024826757 0.0062231365            0  0.031047637   0.26763739 
  600000  0.024863154 0.0062398612            0  0.031100755   0.26668681 
  700000  0.024650141 0.0062970314            0  0.030944931   0.27104687 
  800000  0.024613045 0.0061212428            0   0.03073205   0.26263381 
  900000  0.025335424 0.0063347743            0  0.031667895   0.27027271 
 1000000  0.024793667 0.0059640021            0  0.030755415   0.26031827 
 1100000  0.025147354 0.0060463883            0  0.031191456   0.26292389 
 1200000  0.024538226 0.0061207324            0  0.030656727   0.26376106 
 1300000  0.024601254 0.0059266402            0  0.030525658   0.25951539 
 1400000  0.025288016 0.0060993723            0   0.03138509   0.26584683 
 1500000  0.024764905   0.00614469            0  0.030907344   0.26495633 
 1600000  0.024556789 0.0063566666            0  0.030911223   0.27203487 
 1700000  0.024612141 0.0061025519            0  0.030712456   0.26572062 
 1800000  0.024716622 0.0063595222            0  0.031073898   0.27046379 
 1900000  0.024709494 0.0060883585            0  0.030795606   0.26462302 
 2000000  0.025172348 0.0062451653            0  0.031415225   0.27024528 
 2100000  0.025028957 0.0061446925            0  0.031171374    0.2662299 
 2200000  0.025036442  0.006130783            0  0.031164949   0.26588944 
 2300000  0.025235629 0.0061513265            0  0.031384662   0.26668433 
 2400000  0.024582552 0.0061204704            0  0.030700787   0.26570798 
 2500000  0.024975413 0.0060922818            0  0.031065424   0.26581351 
 2600000  0.024697679  0.006319086            0  0.031014519   0.27065611 
 2700000  0.025028084 0.0062971655            0  0.031322974    0.2709308 
 2800000  0.024946671 0.0060060231            0  0.030950426   0.26164257 
 2900000  0.024716849 0.0060932615            0  0.030807863   0.26412182 
 3000000  0.024710671 0.0061618787            0  0.030870304   0.26533539 
 3100000  0.024701012 0.0061101125            0  0.030808878   0.26413111 
 3200000  0.024699896 0.0061308382            0  0.030828489   0.26504223 
 3300000  0.025181192 0.0063370906            0  0.031515994   0.27163065 
 3400000  0.024684762 0.0063167887            0  0.030999306   0.27080131 
 3500000  0.024902634 0.0062326726            0  0.031133043   0.26970478 
 3600000  0.025064575 0.0061024062            0  0.031164702   0.26419379 
 3700000  0.024627933 0.0060696567            0   0.03069535    0.2609922 
 3800000  0.024956096 0.0060822527            0   0.03103608   0.26588662 
 3900000  0.024748681 0.0063936089            0   0.03114004   0.27258229 
 4000000  0.024430355 0.0062022589            0  0.030630393   0.26628152 
 4100000  0.025020319  0.006080815            0  0.031098859   0.26145607 
 4200000  0.024594497 0.0060793132            0  0.030671575   0.26324784 
 4300000  0.025264999 0.0059953431            0  0.031258045   0.26428647 
 4400000   0.02458455  0.006356487            0  0.030938802   0.27041291 
 4500000  0.025028238 0.0063545021            0  0.031380465   0.27282841 
 4600000  0.025122369  0.006109862            0  0.031229947   0.26253756 
 4700000  0.024856317  0.006144794            0  0.030998852   0.26542511 
 4800000  0.024752313 0.0061155408            0  0.030865603   0.26723577 
 4900000  0.025441556 0.0061577289            0  0.031596972   0.26698337 
 5000000  0.025293035  0.006007606            0  0.031298342   0.26265657 
 5100000  0.024795294 0.0063686692            0   0.03116171   0.27175763 
 5200000  0.024478377 0.0062843207            0  0.030760473   0.26981082 
 5300000  0.024283355 0.0062398646            0  0.030521012   0.27052178 
 5400000  0.025078806 0.0062439207            0  0.031320447   0.26969926 
 5500000  0.024906434 0.0060087503            0   0.03091292    0.2613609 
 5600000  0.024993525 0.0061015416            0  0.031092794       0.2651 
 5700000  0.024796434 0.0060097152            0  0.030803895   0.26330181 
 5800000  0.024716572 0.0061705774            0  0.030884903   0.26630245 
 5900000  0.025078376 0.0063291844            0  0.031405281   0.26998499 
 6000000  0.024898554 0.0060291626            0  0.030925453   0.26459976 
 6100000  0.024668542 0.0062328532            0  0.030899153   0.26695989 
 6200000  0.024571418 0.0061732718            0  0.030742456   0.26607866 
 6300000  0.024752884 0.0061470695            0  0.030897703   0.26559711 
 6400000  0.024967358 0.0062734347            0  0.031238523    0.2699179 
 6500000  0.025090496 0.0061123769            0  0.031200592    0.2646347 
 6600000  0.024567837 0.0062527176            0  0.030818321   0.26948659 
 6700000  0.024973289 0.0061079646            0  0.031078983   0.26384263 
 6800000  0.024678211 0.0060824395            0  0.030758407   0.26384398 
 6900000  0.024470082 0.0062200982            0  0.030687956   0.26742273 
 7000000  0.025004327 0.0062911664            0   0.03129322   0.27047262 
 7100000  0.025572139 0.0063656994            0  0.031935514   0.27145158 
 7200000  0.025239837 0.0061098559            0  0.031347399   0.26549348 
 7300000  0.024993079 0.0063264126            0   0.03131722   0.27046165 
 7400000  0.024591473 0.0061279089            0  0.030717147   0.26647921 
 7500000  0.024793159  0.006340339            0  0.031131244   0.27209721 
 7600000  0.024411508 0.0062703527            0  0.030679642   0.26886876 
 7700000   0.02536214 0.0061992954            0   0.03155913   0.26640737 
 7800000  0.024973448 0.0062556436            0  0.031226822   0.26845503 
 7900000  0.024573445 0.0062517563            0  0.030822967   0.27015064 
 8000000   0.02510322 0.0063320034            0  0.031432941   0.27245652 
 8100000  0.024651103 0.0061895039            0  0.030838366   0.26597769 
 8200000  0.024944532 0.0061892127            0  0.031131477   0.26780169 
 8300000  0.025565259 0.0060775735            0  0.031640509    0.2658892 
 8400000  0.024776189 0.0060107349            0  0.030784671   0.26201061 
 8500000    0.0249415 0.0061630693            0  0.031102302   0.26606258 
 8600000  0.025146561 0.0063270292            0  0.031471304   0.27256002 
 8700000  0.025055658 0.0060275123            0  0.031080893   0.26442738 
 8800000  0.025102146 0.0061758912            0  0.031275755   0.26667304 
 8900000  0.024916646 0.0061742735            0  0.031088654    0.2693616 
 9000000  0.024598101 0.0060002794            0  0.030596145   0.26258296 
 9100000   0.02475453 0.0061229596            0  0.030875239   0.26713839 
 9200000  0.025035299 0.0062949958            0  0.031328019   0.26873004 
 9300000  0.025257085 0.0062938193            0  0.031548608   0.26940895 
 9400000  0.024684987 0.0061541843            0  0.030836927    0.2671005 
 9500000  0.025018142 0.0059836803            0  0.030999548   0.26231554 
 9600000  0.024955073 0.0064020845            0  0.031354888   0.27298187 
 9700000  0.025147601 0.0062613655            0  0.031406681   0.26950692 
 9800000  0.025165142 0.0059853677            0  0.031148222   0.26006952 
 9900000  0.024435302 0.0060571982            0  0.030490279   0.26420843 
10000000  0.024914111 0.0060607928            0  0.030972638   0.26436128 
Loop time of 390.234 on 32 procs for 10000000 steps with 11000 atoms

Performance: 11070267.323 tau/day, 25625.619 timesteps/s
99.5% CPU use with 32 MPI tasks x no OpenMP threads

MPI task timing breakdown:
Section |  min time  |  avg time  |  max time  |%varavg| %total
---------------------------------------------------------------
Pair    | 89.854     | 99.067     | 105.67     |  32.9 | 25.39
Neigh   | 11.298     | 11.448     | 12.052     |   4.1 |  2.93
Comm    | 81.968     | 98.523     | 115.34     |  87.4 | 25.25
Output  | 0.31465    | 0.31472    | 0.31548    |   0.0 |  0.08
Modify  | 116.55     | 131.9      | 150.62     |  74.8 | 33.80
Other   |            | 48.98      |            |       | 12.55

Nlocal:    343.75 ave 352 max 328 min
Histogram: 1 1 2 0 0 5 7 10 4 2
Nghost:    106.656 ave 113 max 94 min
Histogram: 1 1 0 2 2 3 7 8 6 2
Neighs:    1009.78 ave 1047 max 921 min
Histogram: 1 3 0 0 0 1 5 8 12 2

Total # of neighbors = 32313
Ave neighs/atom = 2.93755
Neighbor list builds = 217802
Dangerous builds = 0
Total wall time: 0:06:30
