# LAMMPS data file written by Ovito 3.7.11
9322 atoms
1 atom types
-58.36 58.36 xlo xhi
-58.36 58.36 ylo yhi
-0.5 0.5 zlo zhi

Atoms  # atomic

1 1 -45.98277776 56.10053424 0.0
2 1 35.23613392 -19.3545104 0.0
3 1 -56.021433096 -35.11976408 0.0
4 1 -49.603175376 -55.27211404 0.0
5 1 -38.08760352 -36.9109492 0.0
6 1 -42.69570912 -54.472628728 0.0
7 1 -54.46791324 -41.15582216 0.0
8 1 -33.53809136 -52.616547288 0.0
9 1 -26.79471008 46.84417136 0.0
10 1 56.43435344 -30.06660512 0.0
11 1 -41.3935808 -41.5896704 0.0
12 1 43.76463088 -38.0308776 0.0
13 1 35.82802104 -23.24280376 0.0
14 1 24.16115672 52.5455932 0.0
15 1 26.24904408 -26.90174232 0.0
16 1 -38.95623376 -32.45446288 0.0
17 1 -53.22437836 -39.27172792 0.0
18 1 -26.01443688 43.78447328 0.0
19 1 49.41656344 -12.13374432 0.0
20 1 -45.19783576 -30.0460624 0.0
21 1 -30.15682968 52.63710168 0.0
22 1 -28.1487788 56.29860808 0.0
23 1 -50.221266136 -43.69074712 0.0
24 1 52.82782216 -56.191704232 0.0
25 1 -38.17047472 -43.84598472 0.0
26 1 -36.43683256 -43.98523168 0.0
27 1 -43.49022216 -44.66442536 0.0
28 1 -32.11445752 -54.271917016 0.0
29 1 -30.20526848 -57.003620224 0.0
30 1 46.93941488 -24.43614904 0.0
31 1 -41.58138328 51.1793856 0.0
32 1 -39.47388696 55.71360744 0.0
33 1 -51.91110328 -50.050656512 0.0
34 1 -52.346200424 -26.31125584 0.0
35 1 -40.82188624 50.37541824 0.0
36 1 -56.69189612 -18.9716688 0.0
37 1 28.69771296 -38.15740208 0.0
38 1 -36.90546336 35.45148232 0.0
39 1 35.95933104 -27.81601008 0.0
40 1 51.35236464 -48.085698656 0.0
41 1 45.88403264 -19.02699408 0.0
42 1 -39.6188532 -40.41535048 0.0
43 1 52.88910016 -39.99259064 0.0
44 1 52.12680184 37.90843832 0.0
45 1 -31.0492708 48.7883764 0.0
46 1 -42.97583712 -37.20193216 0.0
47 1 -11.34833544 -16.92113184 0.0
48 1 58.33945728 42.7936372 0.0
49 1 54.23359784 -33.64208888 0.0
50 1 -48.205500064 54.81474672 0.0
51 1 53.76718472 -21.9451108 0.0
52 1 -56.911633192 -33.02230568 0.0
53 1 -30.0653212 -53.751147392 0.0
54 1 29.56564288 -48.246305376 0.0
55 1 48.7241804 -29.6311228 0.0
56 1 24.13816288 -43.99445256 0.0
57 1 -24.62792 43.89699136 0.0
58 1 34.83590104 -48.412327904 0.0
59 1 -41.54146504 -33.62843264 0.0
60 1 -51.255883888 -39.10890352 0.0
61 1 -53.566881528 -41.78435936 0.0
62 1 53.67007368 -35.21885936 0.0
63 1 -16.33578104 -10.81072312 0.0
64 1 55.02951152 47.33731336 0.0
65 1 -51.210736592 -40.78698696 0.0
66 1 55.83137792 -38.41231856 0.0
67 1 -54.871390936 -31.81857232 0.0
68 1 -24.90886504 -45.36707976 0.0
69 1 -56.6547208 38.47581424 0.0
70 1 44.7370252 -25.69742536 0.0
71 1 -43.21312888 -31.73430048 0.0
72 1 54.28553824 12.61696512 0.0
73 1 -54.683530096 -46.842175448 0.0
74 1 56.2456172 -48.000726496 0.0
75 1 -31.28411144 -10.16386088 0.0
76 1 57.04094728 -56.292526968 0.0
77 1 46.68776656 -48.536821456 0.0
78 1 51.96887968 -53.220900104 0.0
79 1 -56.136145512 -47.420989928 0.0
80 1 -27.1776684 43.68619504 0.0
81 1 -37.2325128 -41.57543056 0.0
82 1 -53.157182656 -52.554615656 0.0
83 1 52.39805912 -10.27556192 0.0
84 1 -33.36581264 -41.76638448 0.0
85 1 -53.82005888 -29.693568 0.0
86 1 -48.366293536 -55.314985296 0.0
87 1 -41.76194912 -34.7685536 0.0
88 1 27.28878584 -19.2045252 0.0
89 1 -44.89471392 -57.05717136 0.0
90 1 -29.86141136 -42.47954368 0.0
91 1 -54.806996512 -55.097781048 0.0
92 1 -42.23314776 -16.74593512 0.0
93 1 -50.26132444 -37.36639064 0.0
94 1 -35.80642784 -43.07399864 0.0
95 1 45.66074728 -12.22280168 0.0
96 1 57.64427296 -43.24044136 0.0
97 1 -55.189989848 -27.51522264 0.0
98 1 -57.8968620432 -42.98260688 0.0
99 1 -50.597314632 23.28960848 0.0
100 1 46.38371096 -32.94410328 0.0
101 1 -42.97315256 -57.0973814 0.0
102 1 -45.28455872 -51.97868416 0.0
103 1 -29.1519872 44.95073952 0.0
104 1 -31.98676584 -31.72531304 0.0
105 1 45.9830112 -10.64649808 0.0
106 1 -46.2071136 41.21593296 0.0
107 1 54.14839224 30.68638832 0.0
108 1 -39.71841536 -51.647339424 0.0
109 1 -50.185444768 -38.5946352 0.0
110 1 -54.571607288 -44.70212592 0.0
111 1 -33.02954232 -54.958884248 0.0
112 1 -38.05212064 -53.871310632 0.0
113 1 55.4962748 -42.44861288 0.0
114 1 -7.94466352 -41.59970832 0.0
115 1 -48.351971992 -39.99947712 0.0
116 1 -47.128057744 -33.50400912 0.0
117 1 57.58988144 -1.96136288 0.0
118 1 -33.2652 -44.56754776 0.0
119 1 -32.37007432 -28.33413016 0.0
120 1 -31.37748744 23.33326176 0.0
121 1 51.49896496 -44.62310648 0.0
122 1 -42.37379536 -32.74427864 0.0
123 1 -55.667234584 -36.21926648 0.0
124 1 -49.974975264 -53.574736784 0.0
125 1 -57.111201048 -26.17539376 0.0
126 1 -49.791071232 -48.683585184 0.0
127 1 24.9669916 -5.14046552 0.0
128 1 33.77386576 -28.43567656 0.0
129 1 -46.0758036 -28.44478072 0.0
130 1 -47.305810632 -31.25738256 0.0
131 1 -21.42232192 -24.87746736 0.0
132 1 -52.423188936 -41.27207528 0.0
133 1 -55.603528808 -4.48449912 0.0
134 1 29.2628712 -30.89660104 0.0
135 1 55.23774 -47.521754304 0.0
136 1 -52.466562088 -46.49412808 0.0
137 1 25.978954 53.84013472 0.0
138 1 -28.67973808 52.86563944 0.0
139 1 -42.73539392 -39.49559688 0.0
140 1 -46.16486096 -35.60870416 0.0
141 1 -45.71794008 -21.10636088 0.0
142 1 51.8808728 -24.39728128 0.0
143 1 -46.880447936 -44.7311892 0.0
144 1 50.7889572 -45.93153768 0.0
145 1 58.18036792 -26.32141048 0.0
146 1 -40.32080728 38.23677168 0.0
147 1 35.32612504 -15.70502616 0.0
148 1 -46.35779912 -51.64836656 0.0
149 1 -47.087287448 -16.96548544 0.0
150 1 -58.082486528 -13.17080152 0.0
151 1 33.53400616 -51.317675456 0.0
152 1 -47.807368144 52.69686232 0.0
153 1 -29.250032 -30.27354968 0.0
154 1 -45.38470448 36.57864736 0.0
155 1 -44.50043376 -37.8703876 0.0
156 1 40.20910624 -53.575740576 0.0
157 1 -42.5205124 -43.74770648 0.0
158 1 58.27467768 52.91652936 0.0
159 1 56.96998152 57.78503728 0.0
160 1 34.444072 -38.09927552 0.0
161 1 37.91614184 -42.16720096 0.0
162 1 45.3060352 -44.28496864 0.0
163 1 56.13146504 -53.584996472 0.0
164 1 39.70137424 -37.53108256 0.0
165 1 -43.77747008 -57.847762608 0.0
166 1 30.64623664 -32.7971528 0.0
167 1 -29.53938088 51.7343892 0.0
168 1 -48.24434448 -58.3352401864 0.0
169 1 -22.60726336 -50.438377008 0.0
170 1 37.26215968 -44.59252584 0.0
171 1 32.40252248 -34.63327512 0.0
172 1 -41.17087904 56.82233072 0.0
173 1 -30.32654056 23.68447224 0.0
174 1 40.64820688 -43.92360352 0.0
175 1 -34.10476696 7.37168504 0.0
176 1 29.23789312 -45.53994208 0.0
177 1 -53.619288808 -44.02550008 0.0
178 1 48.62566872 -34.27727912 0.0
179 1 -8.158728 -6.45683368 0.0
180 1 52.7446008 53.9053812 0.0
181 1 -26.89263816 -44.14969016 0.0
182 1 32.15624328 -22.64519736 0.0
183 1 42.494834 -34.27681224 0.0
184 1 -31.0352644 55.1665408 0.0
185 1 -49.68852104 -49.973422888 0.0
186 1 -30.06672184 -44.69780728 0.0
187 1 48.55867144 -54.75107596 0.0
188 1 54.69312448 57.63820352 0.0
189 1 -47.69651916 -50.988443352 0.0
190 1 53.24089424 -19.79057632 0.0
191 1 -54.35253552 -40.00974848 0.0
192 1 -6.05555032 -50.100799424 0.0
193 1 50.58282968 -26.42389064 0.0
194 1 43.0819356 -29.49526072 0.0
195 1 53.53923056 -15.15235696 0.0
196 1 -36.48760576 -20.92252688 0.0
197 1 22.08599184 -32.25183696 0.0
198 1 -39.93306344 -20.76810632 0.0
199 1 32.63654608 -29.62271896 0.0
200 1 -20.56968232 20.81829592 0.0
201 1 53.4064032 -38.91538176 0.0
202 1 -50.356871432 -41.71642832 0.0
203 1 37.39171888 -43.41201976 0.0
204 1 -24.5182032 -15.97826768 0.0
205 1 46.22275408 16.46907528 0.0
206 1 -45.19188304 -34.79715 0.0
207 1 -50.41673712 55.6917808 0.0
208 1 57.2855924 -53.707272344 0.0
209 1 37.75413448 -30.39003624 0.0
210 1 -43.36544848 7.18306552 0.0
211 1 -30.8485124 56.3868484 0.0
212 1 31.9310904 -51.417050864 0.0
213 1 -34.38816312 -47.42637072 0.0
214 1 19.84251672 -24.01735768 0.0
215 1 -51.813957224 8.13456696 0.0
216 1 -46.02234584 -32.89648152 0.0
217 1 55.88413536 -6.88274496 0.0
218 1 43.64604336 -9.33129712 0.0
219 1 -48.263299808 2.20379032 0.0
220 1 -46.937337264 51.65186816 0.0
221 1 -28.00906496 -48.692070728 0.0
222 1 57.76974696 -50.293982696 0.0
223 1 -56.698128968 -43.1198696 0.0
224 1 -35.26321296 -44.03577144 0.0
225 1 38.43286128 -44.43378664 0.0
226 1 -38.1184176 -33.52338464 0.0
227 1 -57.3195906016 -30.76400712 0.0
228 1 -40.82795568 -55.849317784 0.0
229 1 -45.18884832 52.7813676 0.0
230 1 -27.66894288 49.2330796 0.0
231 1 46.69313568 -42.30586432 0.0
232 1 -36.38886064 -52.34343416 0.0
233 1 54.66137664 -37.42661816 0.0
234 1 55.74944048 -31.10424592 0.0
235 1 28.22966576 -43.66927064 0.0
236 1 -57.011662232 -45.49885664 0.0
237 1 -35.11789656 -35.08930016 0.0
238 1 -54.432827208 2.57145832 0.0
239 1 -35.70826632 -55.7565604 0.0
240 1 -34.77520664 -57.3524717928 0.0
241 1 -38.32256088 -55.954179032 0.0
242 1 18.89276608 -31.27909248 0.0
243 1 -51.685903712 35.55104448 0.0
244 1 -54.531724064 40.63595128 0.0
245 1 51.51448872 41.37303808 0.0
246 1 45.8050132 -46.839047352 0.0
247 1 57.09055328 55.48717064 0.0
248 1 54.97313576 -25.40807648 0.0
249 1 50.17419296 -16.62583024 0.0
250 1 -45.25094336 -45.8557864 0.0
251 1 -46.521674 43.00980264 0.0
252 1 -28.92636744 -15.7286036 0.0
253 1 54.90578832 -54.938691688 0.0
254 1 -45.88309888 -31.6147792 0.0
255 1 -48.988306088 -54.112360776 0.0
256 1 54.9716184 49.13526824 0.0
257 1 51.81982824 -34.362368 0.0
258 1 -22.84642264 -52.951498672 0.0
259 1 55.89697456 -46.51455408 0.0
260 1 55.3334504 54.5193284 0.0
261 1 -25.62634288 -42.1370872 0.0
262 1 -55.084031432 50.05257072 0.0
263 1 -36.82912848 -57.80137808 0.0
264 1 -48.587349544 -51.908383704 0.0
265 1 33.28352504 -42.00542704 0.0
266 1 30.5788892 -5.84020192 0.0
267 1 -37.65235464 -51.795282024 0.0
268 1 41.1397148 -39.47085224 0.0
269 1 -41.56317496 -37.5669156 0.0
270 1 -50.64702568 -26.72526168 0.0
271 1 -33.68982736 -51.128635744 0.0
272 1 20.12988136 -13.3813644 0.0
273 1 -31.07751704 -58.1464479208 0.0
274 1 -50.48922024 -27.84752448 0.0
275 1 -16.67707032 7.62986968 0.0
276 1 36.61786528 -19.87204688 0.0
277 1 -57.4024326216 -14.29084664 0.0
278 1 56.87893992 -42.44767912 0.0
279 1 -36.27342456 -38.348356 0.0
280 1 24.13816288 -23.0644556 0.0
281 1 42.02550288 -45.21359296 0.0
282 1 -36.75256016 -16.36332696 0.0
283 1 -36.03193088 -49.04942068 0.0
284 1 -48.782878888 40.43157456 0.0
285 1 43.5692416 -43.9211524 0.0
286 1 -42.7685424 -25.37399424 0.0
287 1 52.10695944 49.42204928 0.0
288 1 -48.06687172 -37.42124904 0.0
289 1 -46.901690976 -24.08598904 0.0
290 1 -48.514072728 20.79331784 0.0
291 1 -38.71088832 -35.8989868 0.0
292 1 -41.81167184 -42.63069608 0.0
293 1 -49.416901928 -14.41188528 0.0
294 1 -34.9418828 14.8281088 0.0
295 1 52.27106776 -21.03166008 0.0
296 1 48.38720976 -11.71191824 0.0
297 1 -51.065852056 -25.48487824 0.0
298 1 -51.802857152 -12.4563584 0.0
299 1 -35.722156 -32.56126168 0.0
300 1 -26.42050576 9.35312376 0.0
301 1 -50.68221676 -17.80015016 0.0
302 1 39.58372048 -13.711682 0.0
303 1 -37.2377652 9.70503456 0.0
304 1 51.71968248 -40.13452216 0.0
305 1 50.12318632 -38.523436 0.0
306 1 -54.910538824 -16.15089656 0.0
307 1 53.0778364 -12.667038 0.0
308 1 -25.5336672 -44.32220232 0.0
309 1 -56.82845852 -13.30129448 0.0
310 1 -48.062331312 -3.12832944 0.0
311 1 -38.18658208 -31.60229016 0.0
312 1 -28.5660528 -29.25435064 0.0
313 1 -16.05530288 -47.689527632 0.0
314 1 -23.08418128 -31.30348696 0.0
315 1 -39.73102112 -27.22645736 0.0
316 1 -53.537117928 -46.85765252 0.0
317 1 -51.808191256 -3.62205504 0.0
318 1 49.9053868 -39.775258 0.0
319 1 -48.30153728 4.3880884 0.0
320 1 -13.55551064 -20.17750312 0.0
321 1 -49.550838128 -17.59425608 0.0
322 1 -53.530978456 -31.19260296 0.0
323 1 -23.6317148 -22.74545984 0.0
324 1 -52.69919672 -8.14402128 0.0
325 1 -10.14728664 -17.10753368 0.0
326 1 -27.09269624 -12.12977584 0.0
327 1 44.50463568 2.95850184 0.0
328 1 37.3107152 4.37711672 0.0
329 1 -35.57228752 16.72994448 0.0
330 1 -51.4761462 -16.87969624 0.0
331 1 -53.830528664 -47.932246872 0.0
332 1 -55.117238272 -29.58361776 0.0
333 1 -51.843312304 -34.28113088 0.0
334 1 25.94790648 -34.60316136 0.0
335 1 56.7685228 -1.17116848 0.0
336 1 47.38493512 -31.22388392 0.0
337 1 33.06199048 -13.03692368 0.0
338 1 -34.74252504 -50.51402324 0.0
339 1 -54.16327404 -35.48673176 0.0
340 1 55.88705336 -32.37591032 0.0
341 1 -27.56506208 -13.80225672 0.0
342 1 -50.253690952 0.76264848 0.0
343 1 39.01401016 -24.1890528 0.0
344 1 -41.78494296 -15.25740496 0.0
345 1 -46.25858712 50.56823968 0.0
346 1 -53.943420248 -20.75024816 0.0
347 1 -11.82922184 -24.69106552 0.0
348 1 54.09703544 -39.76557024 0.0
349 1 -44.18470616 5.97804824 0.0
350 1 54.71553472 -34.82492936 0.0
351 1 -6.34828408 -19.10753088 0.0
352 1 -56.025063088 -24.0285628 0.0
353 1 -57.5366477824 -41.49127544 0.0
354 1 -24.5310424 10.895812 0.0
355 1 -49.809454632 -30.9383868 0.0
356 1 -17.03248272 -25.22739392 0.0
357 1 -51.898707616 -54.06972296 0.0
358 1 -32.91539016 -32.39516912 0.0
359 1 -41.94881784 -18.99979832 0.0
360 1 -37.46256792 -39.1292128 0.0
361 1 -53.96981064 -51.753052728 0.0
362 1 53.16444264 -26.53138976 0.0
363 1 -30.0711572 -10.76531904 0.0
364 1 52.08991832 -39.02801656 0.0
365 1 -40.4644896 -24.4610104 0.0
366 1 -55.407369176 -54.058832984 0.0
367 1 40.090402 -34.25253448 0.0
368 1 -50.784195024 -5.1864532 0.0
369 1 51.57985192 2.96737256 0.0
370 1 30.55811304 -19.355094 0.0
371 1 45.24113888 0.79859824 0.0
372 1 -51.63558572 -33.07051104 0.0
373 1 55.4875208 -50.145970064 0.0
374 1 57.531288 -6.58230768 0.0
375 1 36.16592544 -16.50665912 0.0
376 1 20.77394232 -21.83562744 0.0
377 1 -57.9291876472 -25.34854928 0.0
378 1 21.44216432 -12.89475872 0.0
379 1 -38.78220424 -26.460424 0.0
380 1 45.24907584 -2.04119936 0.0
381 1 -54.841627336 -2.21697968 0.0
382 1 55.71967688 -29.14941936 0.0
383 1 -50.670322992 -50.572978512 0.0
384 1 -33.59003176 -16.42378792 0.0
385 1 58.07193504 -34.7574652 0.0
386 1 -51.304882944 -15.77050608 0.0
387 1 -32.58390536 -35.80526064 0.0
388 1 -32.39061704 2.2538632 0.0
389 1 -39.78132744 10.44142104 0.0
390 1 49.01843152 -40.66746568 0.0
391 1 25.71738448 -13.1595964 0.0
392 1 -56.693110008 -40.77508152 0.0
393 1 -49.01358764 -3.7397088 0.0
394 1 47.02975616 -9.91256272 0.0
395 1 -49.94192016 -25.72590504 0.0
396 1 -48.496704792 -31.18956824 0.0
397 1 -53.013488664 -34.54771936 0.0
398 1 56.72265184 -16.88494864 0.0
399 1 -39.67522896 -19.6007896 0.0
400 1 -21.45278584 -17.69837032 0.0
401 1 37.6883044 -8.73322384 0.0
402 1 -40.67435216 -29.31212704 0.0
403 1 48.41265472 -32.15484264 0.0
404 1 24.1762136 14.4190052 0.0
405 1 -12.87211504 -33.68924376 0.0
406 1 40.5753736 -26.96372064 0.0
407 1 51.74652808 -26.35560944 0.0
408 1 -29.86934832 -16.68080536 0.0
409 1 -57.805013908 -18.7697432 0.0
410 1 54.45851728 -19.43843208 0.0
411 1 -43.6608668 -18.49860264 0.0
412 1 54.20733584 11.11221088 0.0
413 1 -33.53318912 6.29074112 0.0
414 1 -56.715251792 3.63512768 0.0
415 1 -36.98985192 14.26108304 0.0
416 1 -25.78017984 -20.0723384 0.0
417 1 -51.000010304 18.82892024 0.0
418 1 -46.729972512 -21.57008944 0.0
419 1 -22.75386368 -20.1242788 0.0
420 1 36.21949992 17.1502532 0.0
421 1 -30.37019384 -7.60232376 0.0
422 1 -53.74232336 -16.21625976 0.0
423 1 1.78429864 29.44005216 0.0
424 1 55.15288456 -27.48627608 0.0
425 1 43.35319288 -19.21479656 0.0
426 1 55.86837816 16.35620704 0.0
427 1 58.18573704 20.23994832 0.0
428 1 -29.3019724 -11.69324304 0.0
429 1 54.8572328 -21.70268336 0.0
430 1 -35.03199064 -8.85227824 0.0
431 1 -55.30736348 -25.01753136 0.0
432 1 54.11816176 -6.28443824 0.0
433 1 27.6503844 3.00775768 0.0
434 1 17.97301248 -3.96136008 0.0
435 1 55.12825664 -13.82700136 0.0
436 1 -54.557939376 -21.8575708 0.0
437 1 -48.179343112 -10.43932008 0.0
438 1 -39.28258288 -18.5538112 0.0
439 1 58.32311648 -2.95266584 0.0
440 1 27.27489616 15.72615248 0.0
441 1 -46.22006952 -52.83319128 0.0
442 1 33.59353336 -20.41269392 0.0
443 1 36.03309808 -14.56128688 0.0
444 1 -43.22328352 4.99339832 0.0
445 1 -24.26713848 -1.50930632 0.0
446 1 52.49120168 -3.10615264 0.0
447 1 42.95307672 -1.31625144 0.0
448 1 -51.244877192 -9.99846864 0.0
449 1 -22.21671824 -37.23216264 0.0
450 1 -53.724803688 0.32413144 0.0
451 1 -49.516895952 3.96182696 0.0
452 1 -4.50842672 -26.6541792 0.0
453 1 48.53416024 -27.52269272 0.0
454 1 33.26449968 -16.66259704 0.0
455 1 -51.134716856 -18.98929352 0.0
456 1 54.473224 -20.54645504 0.0
457 1 -41.7863436 -24.7977476 0.0
458 1 -48.916464928 -5.91501944 0.0
459 1 -19.7414372 -30.20900352 0.0
460 1 50.09237224 -40.87265944 0.0
461 1 -36.14048048 -34.66373904 0.0
462 1 -51.554593712 -23.28727408 0.0
463 1 -5.59485648 -43.9153164 0.0
464 1 -5.278662 -10.51950672 0.0
465 1 56.70350976 0.28281256 0.0
466 1 57.11879952 -31.24629416 0.0
467 1 -53.624973072 -26.00393208 0.0
468 1 -38.6004712 -1.89109744 0.0
469 1 54.16426616 19.31389184 0.0
470 1 8.11250688 -4.88449856 0.0
471 1 -19.39501224 -15.50368416 0.0
472 1 -54.322328384 -1.09915224 0.0
473 1 -21.92795296 -41.19200536 0.0
474 1 46.7965496 -17.02968144 0.0
475 1 54.72790704 -41.59924144 0.0
476 1 -37.95641024 -25.18630848 0.0
477 1 -46.709955032 -14.45180352 0.0
478 1 -55.780919864 -15.30479328 0.0
479 1 -14.58428072 24.66865528 0.0
480 1 28.52625128 6.2369332 0.0
481 1 56.09960048 3.12424424 0.0
482 1 45.35190616 -26.72514496 0.0
483 1 -38.53779256 -14.07923328 0.0
484 1 -45.28607608 -19.08185248 0.0
485 1 54.82361744 -57.842212572 0.0
486 1 -47.561859296 -41.3813252 0.0
487 1 -23.74271552 -2.72564544 0.0
488 1 -52.75212924 -45.1257028 0.0
489 1 -57.6873029552 -0.62608608 0.0
490 1 -21.06048992 -40.04453104 0.0
491 1 55.8691952 1.018382 0.0
492 1 48.52027056 14.78714008 0.0
493 1 -49.248113136 -16.30379976 0.0
494 1 57.10105808 -4.5620012 0.0
495 1 -43.86489336 26.20982616 0.0
496 1 -32.1960448 -19.33385096 0.0
497 1 -37.3789964 -52.880649632 0.0
498 1 -34.73797296 -9.99309952 0.0
499 1 -50.440046104 49.58755824 0.0
500 1 53.94634992 -14.07596512 0.0
501 1 -47.955847656 0.91228352 0.0
502 1 -52.69394432 -38.24692632 0.0
503 1 -50.70100868 -3.93836624 0.0
504 1 53.61194712 -25.38519936 0.0
505 1 -35.89385112 9.72931232 0.0
506 1 -41.1356296 3.23209352 0.0
507 1 -36.36096456 -19.772368 0.0
508 1 47.61965904 -26.86030672 0.0
509 1 -49.353791424 -27.50985352 0.0
510 1 -45.1747252 -36.53826224 0.0
511 1 -45.40372984 10.87398536 0.0
512 1 22.41864384 -33.44541568 0.0
513 1 49.79368576 -6.09371776 0.0
514 1 43.95219992 12.7860924 0.0
515 1 -41.05252496 -13.81719688 0.0
516 1 48.7125084 -22.97061272 0.0
517 1 -48.990220296 8.28700328 0.0
518 1 -57.9634344624 -6.47399152 0.0
519 1 33.72962888 1.68275224 0.0
520 1 -51.024743272 -28.79820888 0.0
521 1 -26.7090376 -23.82792112 0.0
522 1 44.41382752 -39.53633216 0.0
523 1 -33.1712404 -33.6013536 0.0
524 1 51.34956336 -5.13964848 0.0
525 1 18.02296864 34.91573752 0.0
526 1 52.37553216 -6.19001176 0.0
527 1 -36.13837952 -18.58801016 0.0
528 1 54.61819024 -0.43629936 0.0
529 1 -53.157801272 -42.83250496 0.0
530 1 56.93181408 -34.9728136 0.0
531 1 -26.2526624 -28.44302992 0.0
532 1 -36.83531464 -17.54079832 0.0
533 1 -48.944944608 -47.946171568 0.0
534 1 -30.96780024 -47.217278512 0.0
535 1 -16.52650152 -41.64849728 0.0
536 1 -42.51981208 -1.01056176 0.0
537 1 -38.25883176 -23.8966692 0.0
538 1 -26.52473672 -42.8374072 0.0
539 1 -52.771983312 -20.7913336 0.0
540 1 -27.30536008 -45.31899112 0.0
541 1 -44.94525368 -32.5806372 0.0
542 1 26.3717168 -21.2249484 0.0
543 1 -52.674206968 9.02584088 0.0
544 1 54.34564904 -15.98106896 0.0
545 1 -52.81457444 -12.9395792 0.0
546 1 -45.21405984 -33.65959688 0.0
547 1 -42.33504432 -38.42399056 0.0
548 1 -32.2304772 -41.17029544 0.0
549 1 -19.21514672 9.47731384 0.0
550 1 -51.673204576 -30.80077392 0.0
551 1 44.62625792 -41.87866912 0.0
552 1 -56.791901816 -4.75330528 0.0
553 1 -57.2657348264 7.24411008 0.0
554 1 -11.56029896 -21.18899864 0.0
555 1 -55.78784136 -30.8035752 0.0
556 1 -32.52029296 -7.1776964 0.0
557 1 49.87585664 -20.28021672 0.0
558 1 -48.577568408 -29.02499584 0.0
559 1 -12.84573632 43.6025068 0.0
560 1 51.33380616 9.04474952 0.0
561 1 48.37215288 -18.5637324 0.0
562 1 -51.313648616 -2.35237488 0.0
563 1 46.23372576 -43.54974936 0.0
564 1 -37.5301488 17.22822216 0.0
565 1 -29.27874512 -26.99885336 0.0
566 1 -47.749381648 -43.54379664 0.0
567 1 53.37792352 -20.91283912 0.0
568 1 -51.088705832 -36.59895664 0.0
569 1 -48.87953472 0.21114648 0.0
570 1 -20.86183248 -33.89525456 0.0
571 1 -10.35458136 -30.75175152 0.0
572 1 -52.92995216 -5.52132288 0.0
573 1 -43.26040048 -21.98526248 0.0
574 1 57.41433456 -48.039956088 0.0
575 1 -55.07619952 -0.12325632 0.0
576 1 42.90323728 -26.0478188 0.0
577 1 31.61174448 -8.9004836 0.0
578 1 -45.18312904 -4.85111664 0.0
579 1 43.93854368 -36.86869656 0.0
580 1 -58.0366132336 1.36749152 0.0
581 1 -21.8289744 -7.37296896 0.0
582 1 23.3159872 -21.14102672 0.0
583 1 -53.513563832 -6.61755712 0.0
584 1 -57.1881312 -38.59265096 0.0
585 1 -11.90707408 -29.08358928 0.0
586 1 -54.730369832 8.63447872 0.0
587 1 -47.517890872 -4.31793968 0.0
588 1 -51.601923672 -27.76780472 0.0
589 1 54.2526232 -24.26795552 0.0
590 1 -39.08100744 -30.95134272 0.0
591 1 -25.2926404 -27.78204456 0.0
592 1 56.31401512 -13.45221344 0.0
593 1 57.95042952 -30.3787144 0.0
594 1 -50.95405764 7.2611512 0.0
595 1 -26.191968 -21.29824856 0.0
596 1 54.34763328 -26.37673576 0.0
597 1 -47.28274676 -19.44099992 0.0
598 1 -46.4522256 25.56879992 0.0
599 1 44.17723608 10.54751952 0.0
600 1 -32.60363104 -1.93860248 0.0
601 1 51.84328896 7.852338 0.0
602 1 -26.43147744 15.88605888 0.0
603 1 -18.64742064 -37.41331208 0.0
604 1 23.51534496 18.32760784 0.0
605 1 -23.3189052 11.12353272 0.0
606 1 -52.865721144 -33.43047552 0.0
607 1 -48.379121064 -19.56017104 0.0
608 1 -25.40445816 28.63351696 0.0
609 1 -47.066336208 2.41528696 0.0
610 1 -58.1435170816 -17.52095592 0.0
611 1 52.60255256 16.57178888 0.0
612 1 37.70838024 0.18068256 0.0
613 1 -57.7318117928 4.47866312 0.0
614 1 -34.552038 18.72153784 0.0
615 1 -47.098982792 4.36742896 0.0
616 1 -48.384887032 7.2611512 0.0
617 1 -42.18716008 27.3696728 0.0
618 1 50.40308088 22.85692744 0.0
619 1 20.16267968 16.19046464 0.0
620 1 -53.445014176 23.82803784 0.0
621 1 46.40483728 -15.76268584 0.0
622 1 -55.566878728 18.57038544 0.0
623 1 51.77454088 4.2649488 0.0
624 1 -42.80367512 -15.82384712 0.0
625 1 -13.19799728 26.35164096 0.0
626 1 40.86297168 -9.30013288 0.0
627 1 -46.02421336 21.9159308 0.0
628 1 -49.793755792 -4.65210904 0.0
629 1 50.20115528 41.5447332 0.0
630 1 -38.28964584 -17.86703072 0.0
631 1 37.55069152 29.01087272 0.0
632 1 -44.15716024 -11.20371936 0.0
633 1 56.8712364 30.17959008 0.0
634 1 -41.19667416 -12.13082632 0.0
635 1 -52.932321576 36.46811352 0.0
636 1 53.09406048 4.66809968 0.0
637 1 -43.84808568 -29.2167668 0.0
638 1 56.85127728 6.82041648 0.0
639 1 -38.24996104 36.3536112 0.0
640 1 -29.57999944 11.23791832 0.0
641 1 -48.333611936 50.4446332 0.0
642 1 44.01674608 16.96361792 0.0
643 1 1.87172192 15.58048592 0.0
644 1 -54.153096056 6.0945348 0.0
645 1 -44.76200328 23.83900952 0.0
646 1 -54.77243572 9.81580184 0.0
647 1 -32.57398416 15.17208264 0.0
648 1 53.12837616 10.0163268 0.0
649 1 46.27948 25.77212616 0.0
650 1 -49.161028344 -11.89948728 0.0
651 1 -48.98598336 34.08177312 0.0
652 1 -32.52356112 -10.76695312 0.0
653 1 -40.26326432 3.94245144 0.0
654 1 -54.787107424 15.46785112 0.0
655 1 -37.4630348 -1.52214552 0.0
656 1 -51.967525728 19.3906936 0.0
657 1 40.9547136 19.07636664 0.0
658 1 -38.63163544 -51.257517968 0.0
659 1 -40.2339676 -37.610102 0.0
660 1 -25.89153072 -11.97803984 0.0
661 1 -41.3352208 12.79122808 0.0
662 1 -40.60595424 13.63558056 0.0
663 1 -41.51345224 9.09680664 0.0
664 1 -20.36787344 13.89294816 0.0
665 1 27.97183128 14.78737352 0.0
666 1 -46.17338152 -16.148212 0.0
667 1 -56.957597528 -11.07252608 0.0
668 1 52.2065216 22.88143864 0.0
669 1 -52.417598048 21.66930144 0.0
670 1 -53.072735736 -14.05098704 0.0
671 1 -49.409350144 -8.49126328 0.0
672 1 44.624974 52.21947752 0.0
673 1 30.75233512 28.41676792 0.0
674 1 -2.43221136 42.27668432 0.0
675 1 51.3282036 -0.53422744 0.0
676 1 48.81837344 10.19770968 0.0
677 1 -44.30971328 -1.09214904 0.0
678 1 57.16700488 3.72196736 0.0
679 1 25.82266592 25.4688876 0.0
680 1 -54.476562192 21.37575064 0.0
681 1 -50.482765624 46.8012184 0.0
682 1 -28.85633544 13.29522504 0.0
683 1 18.29515968 21.63510248 0.0
684 1 -45.93655664 12.41270512 0.0
685 1 44.42631656 13.86902056 0.0
686 1 -56.861443592 31.27559088 0.0
687 1 -36.31369296 10.8893924 0.0
688 1 -39.97274824 -49.439335512 0.0
689 1 -33.507394 16.84526384 0.0
690 1 -43.32634728 -1.82375 0.0
691 1 -47.655071888 15.54161816 0.0
692 1 -51.64007944 5.62228568 0.0
693 1 -33.2611148 1.4549148 0.0
694 1 -42.95401048 25.11510928 0.0
695 1 17.2296228 23.92970096 0.0
696 1 -53.647091512 14.99373448 0.0
697 1 23.88044512 16.98836256 0.0
698 1 -22.11096992 7.60699256 0.0
699 1 -27.80573872 7.77215136 0.0
700 1 -35.54520848 3.0586476 0.0
701 1 -47.8263118 -6.90060312 0.0
702 1 -35.3801664 -13.33946192 0.0
703 1 -28.09555448 -11.29569472 0.0
704 1 56.44427464 38.6845096 0.0
705 1 -44.49389744 15.3656044 0.0
706 1 -38.64879328 -34.79294808 0.0
707 1 55.32189512 22.13338016 0.0
708 1 2.91671608 -17.93858008 0.0
709 1 56.428284 26.55461704 0.0
710 1 48.11828688 25.06982192 0.0
711 1 -39.92804448 33.36476216 0.0
712 1 -36.25755064 5.34916088 0.0
713 1 -35.39662392 17.9036808 0.0
714 1 -30.3448656 -26.6600152 0.0
715 1 -52.779406704 5.8377508 0.0
716 1 7.65052912 30.17492128 0.0
717 1 48.99987304 -2.5573352 0.0
718 1 -20.00429064 32.0530628 0.0
719 1 -37.77397688 2.2742892 0.0
720 1 -49.42018176 -24.32666568 0.0
721 1 -57.6097401808 23.86153648 0.0
722 1 49.95651016 -55.033970224 0.0
723 1 -49.859620888 -23.25832752 0.0
724 1 43.33568488 7.2699052 0.0
725 1 50.87778112 11.66161192 0.0
726 1 -56.51570728 -27.391266 0.0
727 1 42.44277688 21.98327824 0.0
728 1 -37.28702104 7.54349688 0.0
729 1 -43.99538632 12.69983632 0.0
730 1 30.84104232 24.14750048 0.0
731 1 -19.16997608 18.59489664 0.0
732 1 -57.625767004 18.4639368 0.0
733 1 49.57261808 14.50922976 0.0
734 1 28.79937608 -2.72903032 0.0
735 1 -52.945254152 10.14401848 0.0
736 1 -45.33089656 18.69294144 0.0
737 1 50.367598 -7.22823616 0.0
738 1 -39.69717232 -11.71191824 0.0
739 1 35.83689176 9.58749752 0.0
740 1 -30.34860064 21.12083416 0.0
741 1 -41.82766248 13.84964504 0.0
742 1 54.77576224 5.3918804 0.0
743 1 -44.33329072 39.68083152 0.0
744 1 -28.51317864 22.77370608 0.0
745 1 51.70614296 -16.072344 0.0
746 1 48.4113708 6.76672528 0.0
747 1 -42.0623864 22.04397264 0.0
748 1 -31.53564304 8.15452608 0.0
749 1 -37.50493728 15.37634264 0.0
750 1 45.65211 -4.17519112 0.0
751 1 -56.0559472 7.10439624 0.0
752 1 -39.36988944 -15.31809936 0.0
753 1 -44.10813784 -8.66669344 0.0
754 1 -42.6489044 -23.94790928 0.0
755 1 -46.728583544 0.95383584 0.0
756 1 44.32430328 19.20347472 0.0
757 1 -32.60608216 12.02951336 0.0
758 1 38.762712 23.62984728 0.0
759 1 -29.09035904 4.674636 0.0
760 1 -57.9998160864 11.05583512 0.0
761 1 -54.125410072 -48.998332336 0.0
762 1 -43.68806256 36.43566536 0.0
763 1 53.93549496 6.55802992 0.0
764 1 -45.99865168 -1.17198552 0.0
765 1 -20.62127256 11.84089384 0.0
766 1 -43.49967648 -0.31736168 0.0
767 1 -10.60354512 -6.16468352 0.0
768 1 45.11333048 -5.35966568 0.0
769 1 41.36813584 15.8383204 0.0
770 1 -50.554396688 16.1954836 0.0
771 1 -49.610412016 12.8987272 0.0
772 1 -45.09617264 20.81129272 0.0
773 1 -39.95862512 -8.42811776 0.0
774 1 -33.14754624 -18.65057208 0.0
775 1 -8.41119336 -2.77746912 0.0
776 1 -47.556852008 14.33158192 0.0
777 1 -35.88626432 14.06405968 0.0
778 1 -53.25338328 18.50432192 0.0
779 1 -49.570003552 18.70111184 0.0
780 1 -50.483570992 -33.07237856 0.0
781 1 54.46715456 -42.88071032 0.0
782 1 -44.96684688 25.80889296 0.0
783 1 -44.48210872 -6.25572512 0.0
784 1 -45.40034496 5.94933512 0.0
785 1 -26.16792368 21.71435536 0.0
786 1 19.46165936 21.77458288 0.0
787 1 -5.96357496 17.44462104 0.0
788 1 37.12197896 7.2465612 0.0
789 1 -36.3506932 -1.03227168 0.0
790 1 -55.923399968 15.38497992 0.0
791 1 -43.04131704 -7.84043256 0.0
792 1 43.0585916 31.75997888 0.0
793 1 -38.04943608 -42.69932744 0.0
794 1 38.77473416 32.83193536 0.0
795 1 -39.25316944 -22.605746 0.0
796 1 -57.4775757904 -35.07541048 0.0
797 1 31.4496204 30.5502928 0.0
798 1 -42.51922848 -12.06698048 0.0
799 1 31.62715152 15.17675144 0.0
800 1 -27.31318032 16.89136824 0.0
801 1 -38.97876072 12.89545904 0.0
802 1 -45.09278776 -15.9398668 0.0
803 1 45.56877192 -58.1319886472 0.0
804 1 -45.42894136 43.51718448 0.0
805 1 -51.716425992 3.364454 0.0
806 1 57.07386232 15.7373576 0.0
807 1 -34.64331304 21.36466224 0.0
808 1 36.29046568 3.87825544 0.0
809 1 48.0046016 -1.80425776 0.0
810 1 -36.950634 25.65809072 0.0
811 1 33.71900736 16.02950776 0.0
812 1 -39.98371992 34.77544008 0.0
813 1 -51.86237268 13.02992048 0.0
814 1 -39.36697144 -4.55523144 0.0
815 1 43.72167792 28.44653152 0.0
816 1 53.308942 27.81706056 0.0
817 1 56.18445592 5.7327028 0.0
818 1 -57.5508164232 17.21830096 0.0
819 1 -27.12479424 14.75679288 0.0
820 1 37.3871668 6.10632352 0.0
821 1 -54.249926968 19.10087784 0.0
822 1 -18.8333556 -7.53871136 0.0
823 1 -55.528769648 3.58143648 0.0
824 1 57.15825088 9.69044456 0.0
825 1 51.3486296 -2.9810288 0.0
826 1 -55.968745688 2.42684224 0.0
827 1 -26.70051704 5.46669792 0.0
828 1 -55.929352688 -6.7020624 0.0
829 1 -52.501157896 0.62923752 0.0
830 1 -58.17240178 22.86859944 0.0
831 1 -20.46848608 25.05231392 0.0
832 1 -49.785947224 19.78859208 0.0
833 1 -41.80373488 17.20791288 0.0
834 1 -44.6156364 30.75793768 0.0
835 1 48.07801848 12.4353488 0.0
836 1 52.90334 -5.02327864 0.0
837 1 -37.87412264 13.31681824 0.0
838 1 19.18690048 0.3956808 0.0
839 1 -41.97157824 28.46905848 0.0
840 1 -21.82664 11.53625464 0.0
841 1 -47.400493896 -18.2561752 0.0
842 1 -46.845723736 -3.28718536 0.0
843 1 -45.95173024 20.00265656 0.0
844 1 -50.957874384 9.398878 0.0
845 1 50.02163992 -10.47246856 0.0
846 1 42.10638984 27.5144056 0.0
847 1 -13.40132352 1.85724864 0.0
848 1 40.431808 46.17653296 0.0
849 1 -37.59854672 10.88157216 0.0
850 1 -41.96562552 -20.27052896 0.0
851 1 -42.55506152 29.76289968 0.0
852 1 -51.527993224 -13.62869408 0.0
853 1 48.04101824 7.81008536 0.0
854 1 37.7781788 22.92929384 0.0
855 1 51.21743632 -38.25311248 0.0
856 1 -45.69751408 -6.057768 0.0