ITEM: TIMESTEP
0
ITEM: NUMBER OF ATOMS
9891
ITEM: BOX BOUNDS pp pp pp
-5.8359999999999999e+01 5.8359999999999999e+01
-5.8359999999999999e+01 5.8359999999999999e+01
-5.0000000000000000e-01 5.0000000000000000e-01
ITEM: ATOMS id type xs ys zs c_002[1] c_002[2]
1 1 0.483013 0.865728 0.5 -0.331649 0.692583
2 1 0.78208 0.850205 0.5 -0.109631 0.921517
3 1 0.873514 0.156718 0.5 -0.234334 -0.426767
4 1 0.15696 0.463669 0.5 0.399649 0.181536
5 1 0.906039 0.275437 0.5 -0.289271 0.63013
6 1 0.198768 0.00884709 0.5 -0.107333 -0.343247
7 1 0.17551 0.0704565 0.5 0.27097 -0.170925
8 1 0.828988 0.302788 0.5 0.247137 0.151635
9 1 0.96066 0.941903 0.5 0.571527 -0.516337
10 1 0.655781 0.15354 0.5 -0.488129 -0.105265
11 1 0.920244 0.13339 0.5 0.668396 0.0883057
12 1 0.997198 0.307074 0.5 -0.543952 -0.634164
13 1 0.279527 0.0578187 0.5 0.556374 -0.707594
14 1 0.938586 0.296862 0.5 -0.594891 0.591251
15 1 0.256982 0.994778 0.5 0.712614 -0.236635
16 1 0.566684 0.259647 0.5 -0.694543 0.0237067
17 1 0.951293 0.942335 0.5 0.827713 -0.318012
18 1 0.976605 0.874558 0.5 -0.853771 0.413494
19 1 0.243689 0.326802 0.5 0.296665 -0.743725
20 1 0.971711 0.0397587 0.5 0.629199 0.206624
21 1 0.514042 0.00250782 0.5 -0.398066 0.657301
22 1 0.0566501 0.280379 0.5 -0.304501 0.673193
23 1 0.987478 0.103401 0.5 -0.0701404 -0.717025
24 1 0.142069 0.516329 0.5 0.818597 -0.315382
25 1 0.218674 0.98821 0.5 -0.382012 -0.41769
26 1 0.993721 0.410418 0.5 -0.0615 0.262333
27 1 0.864614 0.173784 0.5 0.780492 0.015851
28 1 0.931779 0.440742 0.5 0.0621473 -0.562944
29 1 0.353119 0.4364 0.5 -0.234562 -0.295416
30 1 0.290962 0.19073 0.5 -0.566085 0.643995
31 1 0.138775 0.142698 0.5 -0.0275585 0.128624
32 1 0.0848863 0.999776 0.5 0.778652 -0.0646184
33 1 0.964325 0.266416 0.5 0.842745 -0.413736
34 1 0.120163 0.940569 0.5 -0.199683 -0.819496
35 1 0.821088 0.258348 0.5 0.662666 -0.61337
36 1 0.155415 0.420782 0.5 0.871684 0.0690888
37 1 0.959161 0.860532 0.5 0.160776 -0.350978
38 1 0.954547 0.267059 0.5 0.380636 -0.258156
39 1 0.163576 0.456662 0.5 0.762085 0.382965
40 1 0.234945 0.78016 0.5 0.201219 -0.408807
41 1 0.0182348 0.234432 0.5 0.487796 0.693071
42 1 0.763646 0.322679 0.5 0.882938 -0.250291
43 1 0.946562 0.217992 0.5 0.143999 0.310972
44 1 0.72459 0.724887 0.5 0.629285 0.258339
45 1 0.985573 0.591205 0.5 -0.278806 0.848345
46 1 0.75768 0.0758065 0.5 -0.0315909 0.573912
47 1 0.829926 0.312396 0.5 -0.482339 -0.364536
48 1 0.0402048 0.394324 0.5 0.664041 -0.423066
49 1 0.342115 0.00531197 0.5 0.181971 0.224206
50 1 0.00478786 0.134654 0.5 -0.115094 -0.181708
51 1 0.0725577 0.334399 0.5 -0.142461 -0.807611
52 1 0.00701111 0.151372 0.5 -0.0467859 -0.339959
53 1 0.225431 0.41872 0.5 0.759412 -0.312452
54 1 0.967263 0.188442 0.5 -0.609249 0.198225
55 1 0.178218 0.289369 0.5 -0.0958161 -0.461767
56 1 0.00666917 0.634098 0.5 -0.049368 -0.942343
57 1 0.288136 0.281794 0.5 0.305915 -0.276989
58 1 0.949184 0.010658 0.5 0.0608591 0.683801
59 1 0.138764 0.163016 0.5 0.22726 -0.361942
60 1 0.0377514 0.157735 0.5 -0.879099 -0.139326
61 1 0.990053 0.00787885 0.5 -0.301984 0.648618
62 1 0.454492 0.954379 0.5 -0.504579 -0.463831
63 1 0.130548 0.322694 0.5 0.488918 -0.491681
64 1 0.985719 0.126402 0.5 -0.532479 -0.0708194
65 1 0.0508454 0.122356 0.5 -0.00652693 -0.729315
66 1 0.557916 0.18754 0.5 -0.573301 -0.539729
67 1 0.869492 0.165396 0.5 0.48937 -0.0429483
68 1 0.164909 0.262694 0.5 -0.565041 0.198488
69 1 0.201525 0.0937509 0.5 -0.0998617 0.090208
70 1 0.69266 0.458386 0.5 0.358351 -0.00441895
71 1 0.0299514 0.320177 0.5 0.159076 -0.24681
72 1 0.235714 0.293244 0.5 0.260801 -0.227679
73 1 0.0269412 0.22607 0.5 0.321744 0.453366
74 1 0.142127 0.235158 0.5 0.418317 -0.0626859
75 1 0.0395604 0.147448 0.5 -0.770122 -0.274773
76 1 0.353205 0.114103 0.5 -0.675646 -0.202966
77 1 0.438981 0.165462 0.5 -0.740801 -0.572059
78 1 0.164409 0.124841 0.5 -0.156994 -0.0364069
79 1 0.847962 0.216952 0.5 0.414689 -0.15109
80 1 0.248115 0.0616963 0.5 0.490727 -0.704043
81 1 0.698385 0.174112 0.5 -0.587386 -0.574477
82 1 0.065059 0.352843 0.5 0.553104 -0.510281
83 1 0.034336 0.506749 0.5 -0.0263526 -0.817379
84 1 0.996145 0.267782 0.5 0.538495 0.354124
85 1 0.488244 0.976645 0.5 -0.720818 -0.0793708
86 1 0.886547 0.174461 0.5 0.480352 -0.135206
87 1 0.170841 0.213916 0.5 0.41249 -0.701235
88 1 0.990339 0.0493138 0.5 0.458173 0.0214938
89 1 0.968855 0.310285 0.5 -0.551234 0.363197
90 1 0.124913 0.396295 0.5 0.814902 -0.469124
91 1 0.964718 0.930788 0.5 0.883616 -0.22224
92 1 0.192252 0.250545 0.5 -0.563039 -0.673779
93 1 0.110933 0.211839 0.5 -0.39669 -0.315786
94 1 0.910837 0.297632 0.5 -0.752973 0.634035
95 1 0.0863577 0.439069 0.5 0.0227572 0.544156
96 1 0.974573 0.265886 0.5 0.836685 -0.190974
97 1 0.121956 0.515997 0.5 0.881115 -0.287839
98 1 0.747974 0.254715 0.5 0.06792 -0.800854
99 1 0.979068 0.00341017 0.5 -0.336067 0.225919
100 1 0.974284 0.576863 0.5 -0.588616 -0.0926965
101 1 0.072995 0.766489 0.5 0.241955 0.534384
102 1 0.836524 0.120473 0.5 -0.0716788 -0.36848
103 1 0.950996 0.10705 0.5 -0.293897 -0.385464
104 1 0.145963 0.420074 0.5 -0.1489 -0.134952
105 1 0.857577 0.494061 0.5 -0.420406 -0.69869
106 1 0.092489 0.954157 0.5 -0.491411 -0.199983
107 1 0.81341 0.165187 0.5 0.359727 -0.346131
108 1 0.210561 0.969416 0.5 -0.739054 -0.329695
109 1 0.915109 0.907472 0.5 0.374867 -0.42174
110 1 0.826455 0.179921 0.5 0.589613 -0.308921
111 1 0.928131 0.0874354 0.5 0.245923 -0.890253
112 1 0.196702 0.279454 0.5 0.113296 -0.770703
113 1 0.208391 0.439682 0.5 0.719118 -0.53425
114 1 0.87186 0.65747 0.5 -0.141738 -0.380976
115 1 0.878024 0.109558 0.5 0.384813 0.627246
116 1 0.0400019 0.0241061 0.5 -0.194532 0.25189
117 1 0.215878 0.419342 0.5 0.909489 -0.326033
118 1 0.041165 0.250782 0.5 -0.163401 0.0308706
119 1 0.20585 0.319726 0.5 0.94307 0.170474
120 1 0.203282 0.259913 0.5 -0.20297 -0.360852
121 1 0.007871 0.946731 0.5 0.442912 0.551973
122 1 0.787391 0.395696 0.5 0.0229637 -0.203422
123 1 0.844527 0.297091 0.5 0.673529 -0.135131
124 1 0.0877666 0.128449 0.5 0.383991 -0.0316806
125 1 0.321444 0.151856 0.5 0.86258 -0.346918
126 1 0.0497173 0.245725 0.5 -0.207291 -0.0796296
127 1 0.816112 0.999723 0.5 0.369676 -0.656143
128 1 0.0527413 0.884001 0.5 -0.0217524 0.824833
129 1 0.0687125 0.134552 0.5 -0.574688 0.182266
130 1 0.0229911 0.535242 0.5 0.467624 -0.504077
131 1 0.108197 0.222696 0.5 -0.286117 -0.926295
132 1 0.606647 0.162726 0.5 -0.664166 -0.387001
133 1 0.656648 0.109293 0.5 -0.697586 -0.388077
134 1 0.467152 0.946805 0.5 -0.355024 0.553991
135 1 0.241984 0.455039 0.5 0.854822 -0.156929
136 1 0.751109 0.10323 0.5 -0.0596921 0.11169
137 1 0.184656 0.190973 0.5 0.120569 -0.159265
138 1 0.000467309 0.295628 0.5 0.488078 0.241608
139 1 0.855156 0.00027303 0.5 0.117847 -0.783532
140 1 0.102644 0.356949 0.5 -0.0103912 -0.815656
141 1 0.0758029 0.0640133 0.5 -0.45741 0.267337
142 1 0.997194 0.250228 0.5 0.95203 -0.0417632
143 1 0.35326 0.266142 0.5 0.947123 0.0427762
144 1 0.138101 0.281996 0.5 0.0910569 -0.182225
145 1 0.21352 0.947076 0.5 -0.475232 -0.520142
146 1 0.0412159 0.0139515 0.5 -0.0914826 -0.528496
147 1 0.786736 0.530675 0.5 0.184298 -0.789138
148 1 0.341452 0.198469 0.5 0.175658 0.298312
149 1 0.870968 0.397505 0.5 0.473965 -0.70314
150 1 0.106309 0.847044 0.5 0.772227 0.0847107
151 1 0.304622 0.290012 0.5 -0.0589469 -0.882039
152 1 0.657212 0.0986473 0.5 -0.849413 -0.286719
153 1 0.163265 0.20723 0.5 0.404854 -0.424078
154 1 0.75271 0.142628 0.5 0.599976 -0.0799138
155 1 0.91641 0.214409 0.5 0.448335 -0.518443
156 1 0.00355677 0.124501 0.5 -0.735038 0.278707
157 1 0.0186387 0.413769 0.5 -0.0202999 -0.227858
158 1 0.10809 0.474888 0.5 0.689881 0.0592326
159 1 0.792779 0.111367 0.5 0.389478 0.164964
160 1 0.879673 0.264596 0.5 0.561451 0.147816
161 1 0.942027 0.2063 0.5 0.287572 0.610712
162 1 0.798526 0.241069 0.5 0.805817 0.505473
163 1 0.749166 0.152672 0.5 0.628251 -0.100069
164 1 0.778206 0.242364 0.5 0.542597 -0.198025
165 1 0.628778 0.987964 0.5 -0.711031 0.0586928
166 1 0.0147923 0.0550671 0.5 0.604043 0.185997
167 1 0.883782 0.100798 0.5 0.762127 0.214984
168 1 0.983749 0.0409458 0.5 0.477105 0.156895
169 1 0.0699284 0.0929548 0.5 0.141279 0.689376
170 1 0.752167 0.190499 0.5 0.711731 -0.261436
171 1 0.0649818 0.328753 0.5 -0.22576 0.133763
172 1 0.890961 0.136814 0.5 -0.834948 -0.09422
173 1 0.182023 0.934706 0.5 -0.224001 0.0670911
174 1 0.896091 0.205658 0.5 0.259503 -0.0936807
175 1 0.356477 0.452661 0.5 0.518421 0.0748507
176 1 0.145801 0.69693 0.5 0.567354 -0.610543
177 1 0.802129 0.213568 0.5 0.273421 -0.453678
178 1 0.960877 0.39077 0.5 -0.0901119 -0.897995
179 1 0.0866915 0.414874 0.5 -0.362249 -0.273705
180 1 0.927374 0.243167 0.5 0.706198 0.434942
181 1 0.889319 0.0636735 0.5 0.772424 -0.346073
182 1 0.239466 0.390347 0.5 0.720896 -0.48847
183 1 0.767293 0.89001 0.5 0.361628 -0.679374
184 1 0.19299 0.290263 0.5 0.472701 -0.0146571
185 1 0.158294 0.363926 0.5 0.434776 -0.7986
186 1 0.821972 0.380089 0.5 0.46244 -0.691861
187 1 0.0187107 0.851089 0.5 -0.541086 0.759744
188 1 0.882233 0.235139 0.5 0.827863 0.285082
189 1 0.0088009 0.893598 0.5 -0.22842 0.913708
190 1 0.768906 0.0774495 0.5 0.785147 0.0528087
191 1 0.438982 0.175834 0.5 -0.941919 -0.123295
192 1 0.93322 0.166622 0.5 -0.133933 0.599502
193 1 0.208017 0.0359508 0.5 0.464903 -0.440144
194 1 0.0948575 0.270975 0.5 0.530346 -0.728939
195 1 0.110088 0.420194 0.5 -0.746966 0.401782
196 1 0.00951936 0.372103 0.5 -0.260348 -0.820835
197 1 0.750974 0.271485 0.5 0.818698 -0.306186
198 1 0.386328 0.29048 0.5 0.641836 -0.16579
199 1 0.0967277 0.125294 0.5 -0.553813 -0.463347
200 1 0.58111 0.977808 0.5 -0.814384 -0.255793
201 1 0.987763 0.829807 0.5 0.406012 0.38848
202 1 0.854049 0.346101 0.5 0.726856 -0.361149
203 1 0.191651 0.431001 0.5 0.96162 -0.122207
204 1 0.881104 0.283557 0.5 0.172383 -0.101649
205 1 0.0637033 0.583538 0.5 0.198074 0.119164
206 1 0.0848897 0.303375 0.5 0.0472301 -0.2432
207 1 0.822703 0.00658593 0.5 0.528327 -0.700329
208 1 0.938283 0.0200683 0.5 0.129033 -0.730394
209 1 0.657784 0.0622722 0.5 0.199498 -0.0477461
210 1 0.379624 0.329998 0.5 0.799048 -0.531764
211 1 0.351359 0.0765539 0.5 0.599136 -0.449247
212 1 0.924534 0.224407 0.5 0.469478 -0.441496
213 1 0.135842 0.699157 0.5 0.481306 -0.730877
214 1 0.951924 0.0841888 0.5 0.658785 0.0697698
215 1 0.0488972 0.152591 0.5 -0.18149 -0.494201
216 1 0.823419 0.0685214 0.5 -0.463589 0.63366
217 1 0.143847 0.208484 0.5 0.687433 -0.562795
218 1 0.947073 0.261028 0.5 -0.434067 0.0958913
219 1 0.952207 0.232403 0.5 -0.500409 -0.0579746
220 1 0.802688 0.868483 0.5 -0.247028 0.106153
221 1 0.767722 0.0976544 0.5 0.222171 0.27305
222 1 0.929089 0.0593686 0.5 0.534184 -0.47106
223 1 0.944277 0.431438 0.5 0.313481 -0.132015
224 1 0.80793 0.268101 0.5 0.242188 -0.00408046
225 1 0.571075 0.161799 0.5 -0.276155 -0.0730066
226 1 0.85547 0.316342 0.5 0.114863 0.425829
227 1 0.78706 0.0358866 0.5 0.0979175 -0.577938
228 1 0.952532 0.384484 0.5 -0.404325 -0.648096
229 1 0.970283 0.144682 0.5 0.179535 0.910681
230 1 0.287395 0.254778 0.5 0.395331 0.365415
231 1 0.969595 0.274608 0.5 0.848029 -0.329968
232 1 0.073868 0.0841781 0.5 0.017579 -0.0590683
233 1 0.272309 0.176017 0.5 0.342005 -0.76571
234 1 0.947469 0.40264 0.5 -0.0339956 -0.987123
235 1 0.935476 0.143969 0.5 0.559421 -0.00808355
236 1 0.973368 0.508559 0.5 0.131053 -0.594997
237 1 0.912099 0.260973 0.5 -0.240269 0.643938
238 1 0.836466 0.197241 0.5 0.761929 -0.17612
239 1 0.0225571 0.386816 0.5 0.161066 -0.444524
240 1 0.375171 0.207872 0.5 0.917707 0.0812716
241 1 0.913768 0.362136 0.5 -0.636364 -0.559253
242 1 0.693037 0.0162173 0.5 0.0810909 -0.876983
243 1 0.966939 0.0502083 0.5 0.80962 -0.183714
244 1 0.090095 0.282687 0.5 0.345221 -0.678226
245 1 0.388852 0.272642 0.5 0.903512 -0.0545938
246 1 0.151269 0.254451 0.5 0.653037 -0.275564
247 1 0.293616 0.952697 0.5 0.844382 -0.00467214
248 1 0.783637 0.56996 0.5 -0.105278 -0.886075
249 1 0.810837 0.313463 0.5 0.572894 0.0678127
250 1 0.885338 0.0550591 0.5 0.534843 -0.146238
251 1 0.151347 0.301278 0.5 0.693553 -0.634586
252 1 0.342686 0.350255 0.5 0.443577 -0.277891
253 1 0.333281 0.323024 0.5 0.740134 -0.59646
254 1 0.023841 0.358374 0.5 0.0634716 -0.467466
255 1 0.958513 0.969256 0.5 0.411821 -0.379808
256 1 0.191344 0.0292199 0.5 0.17304 -0.930773
257 1 0.232547 0.00731775 0.5 0.650391 0.0898601
258 1 0.262993 0.333114 0.5 0.127539 0.0888996
259 1 0.0270086 0.0113747 0.5 -0.390058 0.260158
260 1 0.96961 0.921691 0.5 0.956868 -0.189899
261 1 0.975924 0.646332 0.5 -0.264842 0.653481
262 1 0.923586 0.107484 0.5 0.265482 -0.803782
263 1 0.219801 0.261339 0.5 -0.626658 -0.349803
264 1 0.999823 0.419645 0.5 0.397909 0.464369
265 1 0.965649 0.301165 0.5 0.157456 0.180585
266 1 0.106765 0.645684 0.5 0.528786 -0.158376
267 1 0.945336 0.369564 0.5 0.130457 -0.182211
268 1 0.0669635 0.418811 0.5 0.596353 -0.121153
269 1 0.0907322 0.358668 0.5 0.640098 -0.5681
270 1 0.129105 0.690353 0.5 0.388029 -0.288417
271 1 0.210093 0.856054 0.5 0.8591 -0.283033
272 1 0.0564331 0.372812 0.5 0.528108 -0.540897
273 1 0.625372 0.0290709 0.5 -0.440993 -0.175844
274 1 0.97811 0.949027 0.5 0.511571 -0.592978
275 1 0.0740074 0.0371302 0.5 0.710955 0.289293
276 1 0.888837 0.403768 0.5 0.268272 -0.784723
277 1 0.886789 0.487341 0.5 0.221142 -0.433288
278 1 0.896517 0.330757 0.5 -0.438379 -0.169034
279 1 0.812813 0.979844 0.5 0.283698 -0.703881
280 1 0.789661 0.994386 0.5 -0.139825 -0.646801
281 1 0.192051 0.261157 0.5 -0.396497 -0.572673
282 1 0.325454 0.0234289 0.5 0.112766 -0.438378
283 1 0.0319493 0.101631 0.5 0.554613 -0.0816229
284 1 0.0602963 0.427807 0.5 0.249749 -0.356766
285 1 0.758523 0.00193369 0.5 0.408091 -0.398764
286 1 0.800112 0.277699 0.5 0.895078 0.197233
287 1 0.948577 0.48505 0.5 -0.272531 -0.49044
288 1 0.86533 0.982228 0.5 -0.637442 -0.163267
289 1 0.12006 0.361635 0.5 0.364299 -0.843578
290 1 0.946571 0.249185 0.5 -0.361407 0.550654
291 1 0.201085 0.479835 0.5 0.605735 -0.353344
292 1 0.795164 0.287875 0.5 0.967019 0.0540497
293 1 0.0415495 0.966773 0.5 -0.266419 0.672
294 1 0.0479701 0.0714452 0.5 0.353399 0.233205
295 1 0.852887 0.422876 0.5 0.0535752 -0.783699
296 1 0.179009 0.571656 0.5 0.395019 -0.64426
297 1 0.86145 0.00798729 0.5 0.59075 -0.736293
298 1 0.0211568 0.0463433 0.5 0.359536 0.84068
299 1 0.0180992 0.158005 0.5 -0.58068 -0.209716
300 1 0.818286 0.961445 0.5 0.571293 -0.502709
301 1 0.956519 0.503686 0.5 -0.233491 -0.620763
302 1 0.764004 0.0389442 0.5 -0.0859403 -0.490577
303 1 0.0511746 0.142968 0.5 -0.491304 -0.443647
304 1 0.919546 0.0190684 0.5 0.24986 -0.149961
305 1 0.181012 0.480785 0.5 0.617744 -0.148559
306 1 0.975318 0.0203612 0.5 0 0
307 1 0.975138 0.931181 0.5 0.683988 -0.35189
308 1 0.00671803 0.188276 0.5 0.275073 0.77968
309 1 0.901063 0.400171 0.5 0.246702 -0.738621
310 1 0.860033 0.162422 0.5 0.695569 0.132786
311 1 0.0689284 0.166055 0.5 0.455584 -0.669385
312 1 0.0783083 0.296719 0.5 -0.4854 -0.266214
313 1 0.0834025 0.322266 0.5 0.467041 -0.276856
314 1 0.0560072 0.110398 0.5 0.182366 0.281999
315 1 0.110989 0.727436 0.5 0.805766 -0.0983581
316 1 0.93767 0.62838 0.5 -0.0610882 0.311171
317 1 0.170775 0.622867 0.5 0.316473 -0.458882
318 1 0.239824 0.562331 0.5 0.276178 -0.303336
319 1 0.309634 0.692573 0.5 0.450874 -0.0385969
320 1 0.725878 0.0565585 0.5 0.278779 0.620017
321 1 0.419382 0.352412 0.5 0.58141 -0.490101
322 1 0.252518 0.516176 0.5 0.0328757 -0.466508
323 1 0.27263 0.51153 0.5 0.612265 -0.369645
324 1 0.18866 0.571056 0.5 0.615215 -0.70287
325 1 0.187591 0.722324 0.5 0.569858 -0.503249
326 1 0.917225 0.426938 0.5 0.29841 -0.435462
327 1 0.826943 0.323438 0.5 0.309909 -0.649857
328 1 0.0114448 0.19778 0.5 0.855897 0.3742
329 1 0.346271 0.580975 0.5 0.326727 -0.59423
330 1 0.0863646 0.792666 0.5 0.639928 0.48336
331 1 0.905272 0.336302 0.5 -0.453133 -0.391785
332 1 0.0215823 0.651319 0.5 0.607485 -0.173899
333 1 0.979001 0.210221 0.5 0.543311 0.445051
334 1 0.850075 0.236812 0.5 0.810267 -0.381552
335 1 0.0272596 0.543932 0.5 0.11419 -0.207391
336 1 0.229832 0.475835 0.5 0.321993 -0.405786
337 1 0.0244608 0.5722 0.5 -0.0861992 -0.508912
338 1 0.811474 0.380633 0.5 0.711846 -0.315123
339 1 0.0427623 0.669526 0.5 0.749461 0.510022
340 1 0.206655 0.487883 0.5 0.677595 -0.645227
341 1 0.892473 0.518657 0.5 0.193191 -0.649316
342 1 0.946655 0.574697 0.5 -0.723949 -0.540426
343 1 0.158656 0.525468 0.5 0.0103035 0.312236
344 1 0.0732081 0.593905 0.5 -0.114462 -0.095969
345 1 0.0509756 0.798327 0.5 0.118701 0.372851
346 1 0.379822 0.61772 0.5 0.76819 0.497516
347 1 0.302422 0.648789 0.5 0.463998 -0.650631
348 1 0.0402029 0.838836 0.5 0.27726 -0.229197
349 1 0.147108 0.679754 0.5 0.587734 0.737589
350 1 0.738394 0.115025 0.5 -0.318481 -0.0435327
351 1 0.104084 0.682115 0.5 0.84635 0.200666
352 1 0.944529 0.508294 0.5 -0.272002 -0.12101
353 1 0.781949 0.251564 0.5 0.763739 -0.303262
354 1 0.211266 0.383182 0.5 -0.0495666 -0.944356
355 1 0.309709 0.134691 0.5 0.62491 -0.573293
356 1 0.0938997 0.486119 0.5 0.539093 0.0601472
357 1 0.800873 0.575445 0.5 0.277963 -0.838106
358 1 0.995284 0.593971 0.5 -0.193695 0.849143
359 1 0.0334823 0.687544 0.5 0.738661 -0.389557
360 1 0.215537 0.634495 0.5 -0.520422 0.130261
361 1 0.943093 0.813831 0.5 0.618422 -0.584839
362 1 0.866647 0.491676 0.5 0.110045 -0.637367
363 1 0.831115 0.427914 0.5 0.506278 -0.260702
364 1 0.0567726 0.903806 0.5 -0.63254 0.619897
365 1 0.937877 0.651373 0.5 -0.591806 0.523275
366 1 0.284167 0.475842 0.5 0.646846 -0.0891798
367 1 0.316522 0.721505 0.5 0.906409 0.138592
368 1 0.71237 0.453746 0.5 0.519003 -0.806882
369 1 0.361227 0.782743 0.5 0.256659 0.871187
370 1 0.13593 0.340048 0.5 -0.298022 -0.873904
371 1 0.950308 0.456547 0.5 0.168213 -0.265512
372 1 0.963825 0.381462 0.5 -0.38245 -0.61282
373 1 0.0862835 0.674041 0.5 0.80003 0.433434
374 1 0.906027 0.884074 0.5 0.770268 -0.338387
375 1 0.769045 0.351708 0.5 0.388316 -0.77571
376 1 0.470982 0.745017 0.5 -0.248195 -0.10843
377 1 0.874652 0.743229 0.5 -0.155001 0.266232
378 1 0.920136 0.453999 0.5 -0.0316139 -0.306669
379 1 0.331681 0.266456 0.5 0.629067 0.379227
380 1 0.118124 0.335216 0.5 0.519346 -0.804198
381 1 0.0249052 0.507243 0.5 0.184472 -0.418252
382 1 0.0467728 0.373992 0.5 0.693983 -0.625505
383 1 0.294404 0.87696 0.5 0.581152 0.049563
384 1 0.990269 0.378366 0.5 -0.234755 -0.182797
385 1 0.2521 0.456487 0.5 0.880257 -0.0464075
386 1 0.878201 0.490839 0.5 -0.0918794 -0.771496
387 1 0.314038 0.391405 0.5 0.679899 -0.312507
388 1 0.875206 0.22439 0.5 0.262723 -0.192225
389 1 0.997874 0.195689 0.5 -0.0899492 0.19965
390 1 0.269767 0.918194 0.5 0.318069 -0.169609
391 1 0.00267304 0.6715 0.5 -0.408113 0.0929669
392 1 0.699976 0.39271 0.5 -0.100579 -0.574844
393 1 0.219696 0.71331 0.5 0.092603 0.643168
394 1 0.750416 0.399722 0.5 -0.897281 0.225249
395 1 0.111185 0.532928 0.5 0.67533 -0.271386
396 1 0.00691596 0.607506 0.5 0.258905 0.0708172
397 1 0.211443 0.738488 0.5 0.865581 -0.293221
398 1 0.0325378 0.132402 0.5 -0.626335 0.178109
399 1 0.246395 0.445145 0.5 0.688691 -0.416973
400 1 0.881185 0.581595 0.5 0.211474 -0.476179
401 1 0.0564484 0.493292 0.5 -0.262981 0.182863
402 1 0.312251 0.325678 0.5 0.814257 -0.550258
403 1 0.132939 0.476828 0.5 0.561474 -0.311444
404 1 0.43572 0.218714 0.5 -0.770674 -0.0561672
405 1 0.878999 0.650651 0.5 -0.173816 -0.118923
406 1 0.868149 0.333192 0.5 -0.663335 -0.494455
407 1 0.99565 0.317285 0.5 -0.639096 -0.644631
408 1 0.137262 0.507029 0.5 0.387914 -0.0291939
409 1 0.859363 0.669496 0.5 0.206241 -0.747933
410 1 0.148746 0.52468 0.5 0.65405 -0.267207
411 1 0.799958 0.296934 0.5 0.928046 0.323251
412 1 0.299674 0.481472 0.5 -0.0358219 -0.45187
413 1 0.0261122 0.454475 0.5 0.380015 -0.0558382
414 1 0.0603964 0.610797 0.5 -0.041809 0.524499
415 1 0.0314112 0.295708 0.5 -0.267691 0.67197
416 1 0.11115 0.517422 0.5 0.467456 0.163673
417 1 0.804094 0.401529 0.5 0.550653 -0.587098
418 1 0.138195 0.555896 0.5 -0.773037 0.524934
419 1 0.842763 0.188734 0.5 0.824833 0.363953
420 1 0.0646925 0.811622 0.5 0.762796 0.389442
421 1 0.986041 0.342097 0.5 -0.440268 -0.60599
422 1 0.991457 0.292735 0.5 0.628054 0.0229795
423 1 0.838735 0.356933 0.5 0.323092 -0.636823
424 1 0.495963 0.658241 0.5 0.60198 0.20163
425 1 0.886574 0.385808 0.5 0.373903 -0.845836
426 1 0.124558 0.464867 0.5 0.292274 0.179416
427 1 0.193082 0.864568 0.5 0.519344 0.0423501
428 1 0.155982 0.576064 0.5 -0.56173 -0.13517
429 1 0.0499691 0.735202 0.5 0.775148 0.565617
430 1 0.899351 0.55382 0.5 0.250698 0.173574
431 1 0.939513 0.724213 0.5 -0.0426061 -0.834106
432 1 0.993384 0.695935 0.5 0.752946 0.313127
433 1 0.995818 0.204869 0.5 0.521505 0.245973
434 1 0.21032 0.720105 0.5 0.123247 -0.388665
435 1 0.164681 0.511185 0.5 -0.00886088 -0.894826
436 1 0.873421 0.634944 0.5 -0.0323128 -0.671034
437 1 0.147218 0.800911 0.5 0.447352 -0.138865
438 1 0.370217 0.533943 0.5 0.731385 -0.427071
439 1 0.00500071 0.518125 0.5 -0.677033 0.144686
440 1 0.843072 0.587109 0.5 -0.297743 0.19392
441 1 0.276308 0.664027 0.5 -0.507414 -0.164577
442 1 0.385298 0.764579 0.5 0.771027 0.351477
443 1 0.214045 0.784827 0.5 0.691547 -0.571583
444 1 0.12937 0.851816 0.5 -0.0566566 0.202897
445 1 0.962913 0.371789 0.5 -0.45213 -0.561515
446 1 0.201843 0.919408 0.5 0.0020258 0.0622432
447 1 0.109361 0.564807 0.5 -0.260231 0.0110207
448 1 0.24031 0.663035 0.5 0.163834 0.375553
449 1 0.449264 0.895114 0.5 -0.758597 -0.186133
450 1 0.442025 0.792341 0.5 0.422765 0.488234
451 1 0.977597 0.59632 0.5 -0.169726 0.477984
452 1 0.246941 0.55596 0.5 0.58611 -0.0306092
453 1 0.87612 0.291617 0.5 0.176828 -0.760149
454 1 0.178784 0.678322 0.5 -0.486422 -0.309338
455 1 0.960327 0.456241 0.5 0.214492 -0.499944
456 1 0.851802 0.662745 0.5 0.0758644 -0.288506
457 1 0.112763 0.618765 0.5 0.697661 -0.0222518
458 1 0.0774068 0.500872 0.5 -0.411157 0.30326
459 1 0.886588 0.330884 0.5 -0.269524 -0.0791475
460 1 0.286926 0.576568 0.5 0.685581 -0.473049
461 1 0.261927 0.387425 0.5 0.498428 -0.61427
462 1 0.147491 0.607584 0.5 0.86602 0.037595
463 1 0.00536078 0.455126 0.5 -0.0309245 0.604354
464 1 0.993102 0.789259 0.5 0.617783 0.530015
465 1 0.956701 0.304924 0.5 -0.615432 0.538706
466 1 0.300226 0.614124 0.5 0.959847 -0.14569
467 1 0.90628 0.694579 0.5 -0.0220829 -0.412645
468 1 0.0176028 0.841531 0.5 -0.599581 0.192367
469 1 0.913393 0.319691 0.5 -0.413224 0.673784
470 1 0.577438 0.0345314 0.5 -0.645199 0.54171
471 1 0.156377 0.588009 0.5 -0.248466 -0.565732
472 1 0.962602 0.680547 0.5 -0.743687 -0.337921
473 1 0.785445 0.363642 0.5 0.0170811 -0.472102
474 1 0.236076 0.678785 0.5 0.625302 0.294829
475 1 0.183177 0.639079 0.5 0.255364 -0.789952
476 1 0.973481 0.378016 0.5 -0.749469 -0.192558
477 1 0.140598 0.829028 0.5 0.35839 0.390802
478 1 0.987712 0.775553 0.5 -0.304808 0.0474005
479 1 0.190325 0.51772 0.5 0.489745 -0.794377
480 1 0.145056 0.390925 0.5 0.607268 -0.29589
481 1 0.369006 0.7732 0.5 0.671709 0.479024
482 1 0.0297057 0.751461 0.5 0.276393 -0.380363
483 1 0.160354 0.429319 0.5 0.868796 0.309193
484 1 0.987432 0.459762 0.5 -0.113342 -0.214611
485 1 0.147449 0.561218 0.5 -0.870167 0.186998
486 1 0.70936 0.287206 0.5 -0.464669 -0.866798
487 1 0.0375989 0.47013 0.5 0.113992 -0.712091
488 1 0.189782 0.386911 0.5 0.349279 -0.339713
489 1 0.676295 0.729067 0.5 0.790993 0.567789
490 1 0.869187 0.666866 0.5 0.163574 -0.884474
491 1 0.602281 0.224464 0.5 -0.377784 -0.648838
492 1 0.136345 0.544764 0.5 -0.337556 0.596441
493 1 0.96859 0.62564 0.5 0.0808306 0.659623
494 1 0.392666 0.668701 0.5 -0.27537 0.0943848
495 1 0.337837 0.687633 0.5 0.176978 -0.121765
496 1 0.135099 0.459816 0.5 0.00506883 0.124768
497 1 0.0957617 0.172094 0.5 0.568331 -0.661426
498 1 0.089789 0.477524 0.5 0.150856 0.561524
499 1 0.168725 0.951256 0.5 -0.791045 -0.557756
500 1 0.152917 0.705325 0.5 0.840144 -0.240746
501 1 0.0854459 0.0856343 0.5 0.186417 -0.549208
502 1 0.980779 0.294268 0.5 0.680074 -0.0859906
503 1 0.854351 0.226423 0.5 0.835413 -0.289295
504 1 0.440353 0.527441 0.5 0 0
505 1 0.925262 0.890349 0.5 0.71905 -0.490708
506 1 0.300543 0.30928 0.5 0.371973 -0.822022
507 1 0.188218 0.694196 0.5 -0.56063 -0.525505
508 1 0.99414 0.860721 0.5 -0.308366 0.749363
509 1 0.301027 0.566484 0.5 0.727336 -0.544955
510 1 0.842288 0.207874 0.5 0.74059 0.0770993
511 1 0.156984 0.608128 0.5 0.559466 -0.351297
512 1 0.299676 0.693406 0.5 0.759266 -0.27427
513 1 0.444999 0.63053 0.5 0.525799 0.608222
514 1 0.831465 0.632909 0.5 0.295425 -0.348698
515 1 0.155226 0.514451 0.5 0.111209 -0.372585
516 1 0.114144 0.484284 0.5 0.577474 -0.332756
517 1 0.175352 0.722654 0.5 0.721349 -0.4319
518 1 0.0278784 0.640716 0.5 0.114165 0.0978303
519 1 0.927207 0.626308 0.5 -0.323171 0.138938
520 1 0.968155 0.0772872 0.5 0.543099 0.395058
521 1 0.827149 0.198662 0.5 0.601389 -0.744081
522 1 0.102239 0.617417 0.5 0.570538 -0.0343928
523 1 0.22312 0.668583 0.5 -0.168197 0.623596
524 1 0.859125 0.774777 0.5 -0.337456 0.860643
525 1 0.768753 0.314966 0.5 0.868613 -0.0747042
526 1 0.0941456 0.153542 0.5 0.783038 -0.540826
527 1 0.298761 0.77392 0.5 0.237107 0.570407
528 1 0.426081 0.79818 0.5 0.660138 0.563229
529 1 0.17691 0.528457 0.5 0.668803 -0.605206
530 1 0.264031 0.780625 0.5 0.708233 0.45958
531 1 0.206354 0.420377 0.5 0.883583 -0.361776
532 1 0.333136 0.391409 0.5 0.399649 -0.134044
533 1 0.116317 0.508317 0.5 0.136305 -0.0505482
534 1 0.800131 0.846041 0.5 -0.718529 0.454118
535 1 0.922273 0.444583 0.5 0.0598929 -0.728641
536 1 0.345998 0.770799 0.5 0.174861 0.396094
537 1 0.758977 0.414349 0.5 -0.585978 -0.0640475
538 1 0.852835 0.720827 0.5 0.1538 -0.588293
539 1 0.0655039 0.602699 0.5 0.0991534 0.752991
540 1 0.166263 0.652909 0.5 0.723813 -0.017686
541 1 0.205475 0.127626 0.5 0.401507 -0.381152
542 1 0.949799 0.749753 0.5 0.244734 -0.705948
543 1 0.157659 0.0143147 0.5 0.0248859 -0.852988
544 1 0.86822 0.283554 0.5 0.672721 -0.352141
545 1 0.165383 0.548335 0.5 -0.174059 0.217733
546 1 0.991265 0.723565 0.5 0.584443 -0.0479968
547 1 0.0721346 0.972584 0.5 -0.00188803 -0.202041
548 1 0.846948 0.643619 0.5 0.815335 0.0652785
549 1 0.363024 0.651612 0.5 0.21964 0.0904361
550 1 0.975567 0.182635 0.5 -0.131469 0.609759
551 1 0.0311008 0.619819 0.5 -0.548623 -0.616274
552 1 0.926435 0.529605 0.5 -0.074842 -0.439585
553 1 0.00660965 0.464959 0.5 -0.134135 0.101773
554 1 0.326718 0.512303 0.5 0.921514 0.165595
555 1 0.964974 0.578647 0.5 -0.165116 -0.783277
556 1 0.746244 0.379654 0.5 -0.392339 0.361575
557 1 0.317587 0.400241 0.5 0.590457 -0.372002
558 1 0.905966 0.866712 0.5 0.944948 -0.267777
559 1 0.795162 0.324226 0.5 0.949609 0.203054
560 1 0.958436 0.276707 0.5 0.651248 -0.29269
561 1 0.167867 0.475168 0.5 -0.483463 0.391602
562 1 0.152649 0.72427 0.5 0.848915 -0.208156
563 1 0.885917 0.917123 0.5 -0.265052 -0.683766
564 1 0.284041 0.657892 0.5 -0.199093 0.242315
565 1 0.222378 0.429054 0.5 0.54447 -0.66067
566 1 0.0728197 0.544558 0.5 0.187318 -0.390489
567 1 0.03985 0.523653 0.5 0.139618 0.0336473
568 1 0.945844 0.51908 0.5 -0.88489 0.317479
569 1 0.653659 0.620339 0.5 -0.501117 0.0946301
570 1 0.889621 0.552911 0.5 -0.042933 0.216685
571 1 0.906122 0.483098 0.5 -0.692293 0.21653
572 1 0.870652 0.181414 0.5 0.863938 -0.228674
573 1 0.868458 0.352324 0.5 0.300109 -0.488168
574 1 0.0577433 0.572272 0.5 0.688095 0.45103
575 1 0.93715 0.449616 0.5 0.113956 0.0944584
576 1 0.170929 0.987438 0.5 -0.328402 -0.44495
577 1 0.0035857 0.504985 0.5 -0.0775338 0.0203721
578 1 0.307873 0.530845 0.5 0.786254 -0.221409
579 1 0.336529 0.530137 0.5 0.634282 -0.159295
580 1 0.2634 0.840671 0.5 -0.0527873 -0.0295143
581 1 0.319851 0.870179 0.5 0.41795 0.732031
582 1 0.327643 0.57442 0.5 0.855328 -0.453907
583 1 0.0943434 0.463308 0.5 0.107417 -0.0272805
584 1 0.979791 0.424836 0.5 0.0711827 0.676666
585 1 0.180432 0.590006 0.5 0.388268 -0.681429
586 1 0.092811 0.785611 0.5 0.41017 0.80017
587 1 0.0123536 0.361438 0.5 -0.381336 -0.643542
588 1 0.0556217 0.345125 0.5 0.204739 -0.0438175
589 1 0.183377 0.865008 0.5 0.791181 -0.523543
590 1 0.0846283 0.980822 0.5 0.178139 0.0553495
591 1 0.108193 0.709813 0.5 0.670227 0.0392164
592 1 0.0420921 0.85672 0.5 0.637206 0.131443
593 1 0.331128 0.459679 0.5 0.847941 0.493369
594 1 0.224795 0.704548 0.5 -0.219959 0.44393
595 1 0.0100596 0.904617 0.5 -0.443262 0.866172
596 1 0.101963 0.0769303 0.5 -0.500275 -0.297368
597 1 0.32503 0.83444 0.5 0.64376 0.198381
598 1 0.140213 0.302406 0.5 0.77888 -0.505132
599 1 0.262116 0.63353 0.5 0.80821 -0.166492
600 1 0.672533 0.458699 0.5 0.924786 0.181471
601 1 0.152058 0.234694 0.5 0.538993 -0.0306083
602 1 0.161775 0.538611 0.5 0.145949 0.543906
603 1 0.404928 0.425062 0.5 0.936209 0.178835
604 1 0.328495 0.843295 0.5 0.886268 0.312885
605 1 0.0744313 0.40652 0.5 0.278 -0.282829
606 1 0.397256 0.870901 0.5 0.144856 -0.545585
607 1 0.781866 0.579094 0.5 -0.427804 -0.485357
608 1 0.0611092 0.140259 0.5 -0.600095 -0.410599
609 1 0.126415 0.764282 0.5 0.623628 -0.763596
610 1 0.181146 0.500285 0.5 0.588528 -0.223038
611 1 0.223539 0.629544 0.5 0.107467 -0.164597
612 1 0.0458458 0.266552 0.5 -0.0305007 0.0350222
613 1 0.109197 0.45477 0.5 0.823311 -0.0252502
614 1 0.980675 0.696757 0.5 0.542404 0.0195311
615 1 0.938538 0.499711 0.5 -0.0322579 -0.758778
616 1 0.313572 0.429909 0.5 0.896682 -0.233508
617 1 0.866662 0.625923 0.5 0.302454 -0.580961
618 1 0.10228 0.939217 0.5 -0.900957 -0.0664414
619 1 0.729537 0.331945 0.5 -0.322904 0.430624
620 1 0.993121 0.398551 0.5 -0.62231 0.235848
621 1 0.141531 0.754367 0.5 0.527164 -0.694894
622 1 0.145635 0.475328 0.5 0.27395 -0.360101
623 1 0.0440361 0.688553 0.5 0.756149 -0.268922
624 1 0.42902 0.862263 0.5 0.751008 0.55536
625 1 0.940275 0.490143 0.5 -0.347463 -0.654746
626 1 0.958748 0.483648 0.5 0.488144 -0.63869
627 1 0.0937209 0.748582 0.5 0.263447 -0.520738
628 1 0.244195 0.697669 0.5 -0.10167 0.637764
629 1 0.87416 0.732517 0.5 0.0941431 -0.0116023
630 1 0.850446 0.162705 0.5 0.685184 -0.185354
631 1 0.230793 0.687121 0.5 0.743483 0.278774
632 1 0.317004 0.798659 0.5 0.341657 0.0585777
633 1 0.975818 0.499325 0.5 -0.148527 -0.927674