ITEM: TIMESTEP
0
ITEM: NUMBER OF ATOMS
9322
ITEM: BOX BOUNDS pp pp pp
-5.8359999999999999e+01 5.8359999999999999e+01
-5.8359999999999999e+01 5.8359999999999999e+01
-5.0000000000000000e-01 5.0000000000000000e-01
ITEM: ATOMS id type xs ys zs c_002[1] c_002[2]
1 1 0.820145 0.552614 0.5 0 0
2 1 0.815302 0.854219 0.5 -0.230156 -0.721111
3 1 0.215595 0.974088 0.5 -0.460126 -0.0812445
4 1 0.79795 0.505031 0.5 -0.318645 0.423287
5 1 0.0784639 0.451557 0.5 -0.759368 -0.513875
6 1 0.596448 0.404296 0.5 -0.428532 -0.283502
7 1 0.639527 0.46693 0.5 0.244998 0.754647
8 1 0.0946539 0.801117 0.5 0.312186 -0.270512
9 1 0.592731 0.606947 0.5 -0.130186 -0.50851
10 1 0.516175 0.310161 0.5 -0.0240109 0.144484
11 1 0.726255 0.562916 0.5 0.296042 0.650876
12 1 0.911912 0.733691 0.5 0 0
13 1 0.976987 0.68182 0.5 -0.826991 -0.422967
14 1 0.165745 0.177516 0.5 0.826265 -0.166147
15 1 0.796786 0.331575 0.5 -0.527993 -0.220599
16 1 0.0282331 0.452171 0.5 -0.0690032 0.771972
17 1 0.557962 0.528683 0.5 0.207748 -0.694972
18 1 0.086867 0.12287 0.5 -0.492819 -0.0258112
19 1 0.369779 0.468523 0.5 -0.263522 -0.788871
20 1 0.804482 0.553046 0.5 0.0478323 -0.0659269
21 1 0.688732 0.617825 0.5 0.10206 -0.0987622
22 1 0.238453 0.373921 0.5 0.0441734 -0.216632
23 1 0.031632 0.323223 0.5 0.391046 0.366057
24 1 0.226549 0.421117 0.5 -0.342814 0.48116
25 1 0.943268 0.0829954 0.5 -0.208538 -0.177383
26 1 0.873918 0.605899 0.5 -0.21086 0.743699
27 1 0.761095 0.884615 0.5 -0.911016 0.239322
28 1 0.940636 0.336052 0.5 -0.332757 -0.0679374
29 1 0.400494 0.166576 0.5 0.0178923 -0.521056
30 1 0.952645 0.962338 0.5 -0.680719 -0.182298
31 1 0.834177 0.516791 0.5 0.40311 0.0969888
32 1 0.0797189 0.128963 0.5 0.375428 0.159834
33 1 0.0765041 0.239245 0.5 0.444337 0.510141
34 1 0.224128 0.224498 0.5 -0.183391 0.425797
35 1 0.8985 0.686387 0.5 -0.17896 0.159466
36 1 0.707112 0.0758039 0.5 -0.740661 -0.160467
37 1 0.402195 0.268531 0.5 0.263397 0.139871
38 1 0.339392 0.541922 0.5 0.771966 0.432105
39 1 0.46755 0.853218 0.5 -0.547746 0.0971384
40 1 0.741357 0.862584 0.5 -0.610744 0.178483
41 1 0.114388 0.942135 0.5 0 0
42 1 0.971618 0.223315 0.5 0.223565 0.0581902
43 1 0.735713 0.147425 0.5 -0.15657 0.321373
44 1 0.992913 0.548201 0.5 0.321464 0.176879
45 1 0.960749 0.552871 0.5 -0.53369 -0.30961
46 1 0.208723 0.398608 0.5 0.270913 -0.885372
47 1 0.777492 0.675001 0.5 -0.0427322 0.372371
48 1 0.199921 0.0166129 0.5 -0.787612 0.251672
49 1 0.388368 0.373397 0.5 0.34715 -0.30291
50 1 0.89468 0.519848 0.5 -0.753431 0.533011
51 1 0.466556 0.98882 0.5 0.0238323 0.210625
52 1 0.918074 0.0481157 0.5 -0.448551 -0.146252
53 1 0.140158 0.972859 0.5 0.303629 -0.136825
54 1 0.845242 0.0800147 0.5 -0.373252 -0.151861
55 1 0.407427 0.174062 0.5 0.203639 -0.765837
56 1 0.940504 0.839355 0.5 -0.181944 0.0556354
57 1 0.0487529 0.853375 0.5 0.126723 0.0600281
58 1 0.0446751 0.925533 0.5 0.231679 0.119437
59 1 0.981499 0.896985 0.5 0.451873 0.673129
60 1 0.352387 0.692619 0.5 -0.90941 -0.100851
61 1 0.856655 0.426155 0.5 0 0
62 1 0.224094 0.214409 0.5 -0.327584 -0.195007
63 1 0.627962 0.348516 0.5 -0.453402 -0.853035
64 1 0.360689 0.344551 0.5 0.36523 -0.459281
65 1 0.690048 0.0942169 0.5 -0.487382 -0.59563
66 1 0.493126 0.750218 0.5 -0.436899 -0.172725
67 1 0.0583922 0.553709 0.5 -0.265178 0.802825
68 1 0.124339 0.702665 0.5 0.46066 -0.533174
69 1 0.166378 0.808637 0.5 0.712304 -0.0418286
70 1 0.67759 0.405616 0.5 -0.279609 -0.193006
71 1 0.0820309 0.945649 0.5 -0.0556309 -0.420248
72 1 0.601624 0.266853 0.5 0.338345 -0.272867
73 1 0.0767974 0.419977 0.5 0.440219 -0.292798
74 1 0.568661 0.289594 0.5 0.496963 0.346626
75 1 0.0204579 0.867846 0.5 -0.563 0.76227
76 1 0.257802 0.368588 0.5 -0.681033 -0.350138
77 1 0.732164 0.0494451 0.5 -0.256895 0.170132
78 1 0.353238 0.456254 0.5 -0.0905234 -0.225915
79 1 0.950262 0.510115 0.5 0.0908591 0.423647
80 1 0.126476 0.816123 0.5 0.279823 0.67406
81 1 0.161757 0.140523 0.5 0.465207 0.197766
82 1 0.655613 0.829041 0.5 0.0405004 0.655911
83 1 0.256527 0.392016 0.5 0.123865 0.747373
84 1 0.0609888 0.383113 0.5 -0.0515965 -0.201336
85 1 0.576085 0.166982 0.5 0.276956 -0.896733
86 1 0.473537 0.410591 0.5 -0.0649796 -0.208945
87 1 0.820814 0.796844 0.5 -0.542357 0.686977
88 1 0.521172 0.337726 0.5 0.498755 0.185405
89 1 0.865508 0.349768 0.5 -0.693971 -0.276572
90 1 0.0499609 0.917118 0.5 -0.030693 0.206377
91 1 0.474613 0.376336 0.5 -0.591334 -0.0438994
92 1 0.316457 0.967982 0.5 0.231374 -0.248191
93 1 0.994441 0.529925 0.5 0.892862 0.0470975
94 1 0.516713 0.914968 0.5 -0.0314084 0.941687
95 1 0.43879 0.0302338 0.5 0.610298 -0.553819
96 1 0.407506 0.430398 0.5 -0.243396 -0.0653293
97 1 0.739473 0.812992 0.5 0.776327 0.16952
98 1 0.466702 0.38168 0.5 -0.478256 0.48329
99 1 0.0434683 0.580423 0.5 -0.504561 0.58494
100 1 0.0542788 0.337118 0.5 0.26175 0.689344
101 1 0.32691 0.410879 0.5 0.186851 -0.68592
102 1 0.207992 0.163743 0.5 -0.32324 -0.371583
103 1 0.945362 0.00607559 0.5 -0.683828 -0.192012
104 1 0.0348391 0.803779 0.5 -0.258258 0.078978
105 1 0.900953 0.364344 0.5 0.807315 0.310818
106 1 0.129308 0.405733 0.5 0.287561 -0.664967
107 1 0.908695 0.160415 0.5 -0.605224 -0.484543
108 1 0.912179 0.315477 0.5 0.0142537 -0.707149
109 1 0.41262 0.134953 0.5 0.0540345 0.133863
110 1 0.0620808 0.620953 0.5 0.553723 -0.128993
111 1 0.372156 0.184168 0.5 0.718683 0.0722753
112 1 0.929714 0.874215 0.5 -0.165683 0.274682
113 1 0.0343343 0.781395 0.5 -0.504038 -0.0551719
114 1 0.374563 0.378026 0.5 0.265592 0.309004
115 1 0.0314572 0.4345 0.5 0.307514 -0.78837
116 1 0.594203 0.4794 0.5 -0.462421 0.725565
117 1 0.94968 0.841473 0.5 -0.228535 0.153213
118 1 0.477136 0.793757 0.5 -0.288904 0.179019
119 1 0.608995 0.839936 0.5 0.479104 -0.237275
120 1 0.595775 0.071788 0.5 0.123204 0.423661
121 1 0.358398 0.945799 0.5 0.0287062 -0.451574
122 1 0.383251 0.214722 0.5 -0.103289 0.633192
123 1 0.773226 0.104774 0.5 -0.0784327 0.493008
124 1 0.180609 0.208141 0.5 -0.653483 -0.410326
125 1 0.525309 0.198776 0.5 -0.146549 -0.618388
126 1 0.557733 0.312757 0.5 0.494643 -0.550659
127 1 0.0305838 0.816519 0.5 -0.0494046 -0.142759
128 1 0.858704 0.708167 0.5 0.148318 0.466874
129 1 0.966811 0.0538742 0.5 0.14366 0.700133
130 1 0.788418 0.767921 0.5 -0.991723 -0.0950158
131 1 0.0817473 0.585515 0.5 0.531187 0.024091
132 1 0.722045 0.867356 0.5 -0.678096 0.533024
133 1 0.54566 0.315784 0.5 -0.314915 -0.143567
134 1 0.0166244 0.268992 0.5 -0.206288 -0.195169
135 1 0.155832 0.640435 0.5 -0.686134 0.0611197
136 1 0.704857 0.136005 0.5 -0.461021 0.0376401
137 1 0.593883 0.730464 0.5 0.041353 0.178814
138 1 0.129111 0.251759 0.5 0.197717 -0.375401
139 1 0.984371 0.749711 0.5 -0.650588 -0.560427
140 1 0.0288231 0.726871 0.5 -0.363566 -0.662892
141 1 0.417458 0.720959 0.5 -0.273192 0.604611
142 1 0.0990473 0.295495 0.5 -0.15887 -0.609541
143 1 0.054929 0.698695 0.5 -0.558654 -0.447574
144 1 0.559622 0.24812 0.5 -0.60573 0.0265568
145 1 0.852882 0.987924 0.5 0.310652 -0.0362716
146 1 0.889716 0.681948 0.5 0.579816 0.195609
147 1 0.652034 0.0620606 0.5 -0.361255 0.511084
148 1 0.0415596 0.455968 0.5 -0.647846 0.323211
149 1 0.351726 0.952857 0.5 -0.130728 0.819592
150 1 0.502867 0.577711 0.5 -0.206597 -0.0542218
151 1 0.162787 0.0378947 0.5 0.438896 -0.0368366
152 1 0.653611 0.24228 0.5 0.197633 0.458636
153 1 0.393329 0.159605 0.5 -0.0875996 0.182264
154 1 0.839232 0.303698 0.5 0.125123 -0.712107
155 1 0.829645 0.171753 0.5 0.852627 -0.223301
156 1 0.231284 0.507027 0.5 0.279964 0.565684
157 1 0.133916 0.911448 0.5 0.0699642 0.638882
158 1 0.97539 0.480527 0.5 -0.162987 -0.147803
159 1 0.243057 0.182037 0.5 -0.419212 -0.601751
160 1 0.0580998 0.834823 0.5 0.612378 -0.132532
161 1 0.129019 0.163653 0.5 -0.465422 0.353702
162 1 0.248285 0.0775465 0.5 -0.144591 -0.0183873
163 1 0.0990338 0.442838 0.5 -0.22493 -0.882651
164 1 0.228981 0.0505718 0.5 -0.287959 -0.577748
165 1 0.698574 0.0600565 0.5 -0.278419 0.77472
166 1 0.44648 0.231467 0.5 -0.0385311 -0.0154701
167 1 0.0378324 0.192022 0.5 -0.897828 0.18108
168 1 0.0133352 0.790376 0.5 -0.284552 -0.471124
169 1 0.942912 0.606589 0.5 0.129654 0.77938
170 1 0.182561 0.965115 0.5 -0.297985 -0.591727
171 1 0.769007 0.179399 0.5 0.133062 0.0709966
172 1 0.96986 0.850854 0.5 -0.0971301 0.632499
173 1 0.992599 0.877097 0.5 -0.0988163 -0.278172
174 1 0.708247 0.106825 0.5 -0.270854 0.0301118
175 1 0.500185 0.62515 0.5 0.35283 0.0558148
176 1 0.259356 0.486774 0.5 -0.394015 0.89522
177 1 0.139391 0.0390271 0.5 0.348899 -0.234057
178 1 0.552698 0.655862 0.5 0.138637 0.636787
179 1 0.420636 0.616427 0.5 -0.145912 -0.225368
180 1 0.279168 0.0713652 0.5 -0.852335 0.271653
181 1 0.343585 0.0761538 0.5 0.258902 0.0970855
182 1 0.724539 0.197741 0.5 0.428176 0.110315
183 1 0.825326 0.0395463 0.5 -0.0175678 -0.0900068
184 1 0.524388 0.376071 0.5 0.0969877 0.647799
185 1 0.168478 0.122567 0.5 -1.93457e-05 0.258232
186 1 0.352651 0.220807 0.5 0.0164141 -0.0890156
187 1 0.371543 0.545264 0.5 0.624642 0.458597
188 1 0.748255 0.121378 0.5 -0.0478775 0.973457
189 1 0.0244174 0.79815 0.5 -0.89753 -0.160759
190 1 0.877457 0.448645 0.5 0.337624 -0.44802
191 1 0.809526 0.422368 0.5 0.471962 -0.655287
192 1 0.309177 0.537816 0.5 0.870141 0.0418423
193 1 0.328636 0.186345 0.5 0.0861849 -0.511348
194 1 0.551748 0.519819 0.5 0.736203 -0.317727
195 1 0.947433 0.584583 0.5 0.292514 -0.386279
196 1 0.0204681 0.460998 0.5 0.23869 0.744916
197 1 0.0341483 0.332771 0.5 -0.0644272 0.510711
198 1 0.53211 0.671567 0.5 -0.745552 0.207439
199 1 0.899689 0.277066 0.5 0.165661 0.193021
200 1 0.723195 0.782082 0.5 -0.0921984 0.576368
201 1 0.572309 0.731161 0.5 0.357718 -0.440209
202 1 0.504063 0.964703 0.5 -0.0666238 -0.61144
203 1 0.643862 0.0195377 0.5 -0.458386 0.124423
204 1 0.636595 0.556371 0.5 -0.519709 -0.361888
205 1 0.909597 0.0211354 0.5 0.287417 0.933964
206 1 0.349844 0.0138384 0.5 0.466409 0.32165
207 1 0.0891142 0.112334 0.5 0.244458 0.217897
208 1 0.969322 0.726354 0.5 -0.680712 -0.494256
209 1 0.232421 0.8257 0.5 -0.353122 -0.779893
210 1 0.937934 0.565134 0.5 0.612102 0.742167
211 1 0.674087 0.845677 0.5 -0.635057 -0.425999
212 1 0.70069 0.497813 0.5 -0.447937 -0.49411
213 1 0.857187 0.857897 0.5 0.314261 -0.133755
214 1 0.0458209 0.605112 0.5 -0.608627 -0.191918
215 1 0.462904 0.140459 0.5 -0.0150897 0.621911
216 1 0.535527 0.0748441 0.5 -0.227759 -0.490987
217 1 0.0880749 0.38504 0.5 0.245403 -0.896732
218 1 0.130063 0.112405 0.5 0.000236721 0.648116
219 1 0.0792137 0.860656 0.5 -0.0111036 -0.310305
220 1 0.795882 0.2204 0.5 0.136619 0.579879
221 1 0.991853 0.152744 0.5 0.0962676 -0.254397
222 1 0.157946 0.840842 0.5 -0.880827 -0.403646
223 1 0.997401 0.567072 0.5 0.209211 -0.694275
224 1 0.96634 0.867365 0.5 -0.264471 0.178773
225 1 0.602438 0.604107 0.5 -0.252069 0.0254876
226 1 0.760504 0.698207 0.5 0 0
227 1 0.135858 0.36178 0.5 0.68651 -0.0140838
228 1 0.748767 0.263107 0.5 -0.314511 0.106386
229 1 0.802483 0.865478 0.5 -0.0157832 -0.933785
230 1 0.424847 0.388142 0.5 0.224864 0.776648
231 1 0.985661 0.477331 0.5 -0.251234 -0.201229
232 1 0.782781 0.792975 0.5 0.0126206 0.565344
233 1 0.863813 0.496296 0.5 -0.0646001 0.9168
234 1 0.833981 0.0275447 0.5 0.0405056 -0.335504
235 1 0.74477 0.605824 0.5 0.169763 -0.56335
236 1 0.882802 0.816499 0.5 0.0516285 -0.17198
237 1 0.662743 0.588579 0.5 -0.568263 0.729682
238 1 0.118965 0.741015 0.5 -0.215413 -0.433665
239 1 0.57658 0.42282 0.5 -0.709062 -0.353577
240 1 0.0586836 0.658643 0.5 0.5814 -0.0196519
241 1 0.252683 0.724698 0.5 0.0984533 0.757752
242 1 0.204238 0.381 0.5 -0.437579 -0.471045
243 1 0.783858 0.46954 0.5 -0.610615 0.261744
244 1 0.330603 0.261035 0.5 0.497649 0.31021
245 1 0.196458 0.0659596 0.5 -0.225233 0.0316331
246 1 0.655 0.557529 0.5 -0.295326 0.512505
247 1 0.97589 0.183464 0.5 0.0896788 -0.241287
248 1 0.82934 0.686077 0.5 0.717418 0.383699
249 1 0.456743 0.0949516 0.5 0.119387 -0.474672
250 1 0.540822 0.275052 0.5 -0.671969 0.116897
251 1 0.235514 0.0724693 0.5 -0.307817 0.0939365
252 1 0.248491 0.58815 0.5 0.332985 0.0146317
253 1 0.143648 0.998512 0.5 -0.100048 0.414279
254 1 0.479673 0.11474 0.5 0.31675 0.626196
255 1 0.567155 0.0416946 0.5 0.069154 0.615713
256 1 0.730742 0.860828 0.5 -0.176442 0.301313
257 1 0.00135158 0.767014 0.5 -0.341035 -0.574061
258 1 0.595752 0.22609 0.5 -0.0478916 -0.217925
259 1 0.383245 0.528318 0.5 0.472471 -0.508565
260 1 0.262289 0.815725 0.5 -0.132828 0.0515315
261 1 0.989164 0.0739101 0.5 0.48057 0.133145
262 1 0.12566 0.0857224 0.5 0.790341 -0.475456
263 1 0.739358 0.408719 0.5 -0.521204 0.462546
264 1 0.517113 0.579169 0.5 0.356282 0.398179
265 1 0.987622 0.457725 0.5 0.0392793 -0.0728584
266 1 0.392001 0.659044 0.5 0.0051377 -0.263781
267 1 0.338519 0.924513 0.5 -0.51007 0.663795
268 1 0.0253842 0.236294 0.5 -0.505587 -0.255754
269 1 0.0298429 0.557027 0.5 0.823747 0.351172
270 1 0.478918 0.401025 0.5 0.563994 -0.297413
271 1 0.00332579 0.849032 0.5 0.662561 0.522805
272 1 0.556087 0.413278 0.5 -0.779999 -0.301329
273 1 0.963471 0.409936 0.5 -0.0802754 0.570247
274 1 0.00323435 0.318034 0.5 -0.376613 -0.431222
275 1 0.955356 0.591262 0.5 0.461346 0.0590144
276 1 0.725359 0.765882 0.5 0.176763 0.479449
277 1 0.418962 0.645615 0.5 0.230654 0.175323
278 1 0.550222 0.974696 0.5 0.893038 0.290658
279 1 0.473019 0.162184 0.5 0.596089 0.401143
280 1 0.874408 0.719436 0.5 0.0783051 0.420305
281 1 0.795253 0.198846 0.5 0.166776 0.184738
282 1 0.563528 0.119699 0.5 -0.0300594 -0.817793
283 1 0.606458 0.742884 0.5 0.267066 0.399781
284 1 0.0297087 0.353392 0.5 0.503371 0.132961
285 1 0.0673337 0.34134 0.5 0.224396 0.491372
286 1 0.661769 0.42175 0.5 -0.592635 -0.262602
287 1 0.137081 0.787262 0.5 -0.462856 -0.17206
288 1 0.0790425 0.486728 0.5 0.156997 0.0950511
289 1 0.104542 0.0117139 0.5 0.365643 0.52711
290 1 0.0791328 0.109598 0.5 0.330444 -0.149266
291 1 0.825886 0.915446 0.5 -0.28128 -0.170015
292 1 0.335762 0.173545 0.5 -0.281416 -0.0595686
293 1 0.433003 0.0718999 0.5 0 0
294 1 0.119822 0.911257 0.5 0.714823 0.296584
295 1 0.759945 0.851528 0.5 -0.497286 -0.734481
296 1 0.0297342 0.615074 0.5 -0.559415 0.282547
297 1 0.239856 0.832766 0.5 -0.229867 -0.383305
298 1 0.203294 0.497249 0.5 0.370873 0.36244
299 1 0.284518 0.383031 0.5 -0.351091 0.00185355
300 1 0.770904 0.836021 0.5 -0.596506 -0.533173
301 1 0.445631 0.945668 0.5 0.456098 -0.178854
302 1 0.617986 0.0243671 0.5 -0.652416 0.293256
303 1 0.796856 0.343725 0.5 -0.701595 -0.0852544
304 1 0.128222 0.619599 0.5 -0.741889 -0.117337
305 1 0.352178 0.241614 0.5 0.860654 -0.140624
306 1 0.0879218 0.212669 0.5 -0.0795252 -0.179313
307 1 0.589564 0.332026 0.5 0.236273 -0.0400978
308 1 0.615377 0.544136 0.5 -0.199869 0.496749
309 1 0.457463 0.255436 0.5 -0.574811 0.491516
310 1 0.00290334 0.426255 0.5 -0.00374651 0.186921
311 1 0.777191 0.118671 0.5 0.290858 0.539942
312 1 0.319327 0.804489 0.5 -0.21875 0.0920901
313 1 0.99354 0.746066 0.5 -0.281279 -0.616469
314 1 0.269309 0.847928 0.5 -0.306234 0.423957
315 1 0.407984 0.83252 0.5 -0.135918 -0.371297
316 1 0.42732 0.0806433 0.5 0.629467 0.565728
317 1 0.263868 0.422029 0.5 -0.0966444 0.223414
318 1 0.891393 0.28236 0.5 -0.0507967 -0.457947
319 1 0.730357 0.574056 0.5 0.0417626 0.626127
320 1 0.156531 0.703198 0.5 -0.324393 0.551042
321 1 0.22095 0.943683 0.5 -0.4881 0.163436
322 1 0.364976 0.0961045 0.5 -0.17093 -0.363432
323 1 0.267095 0.120583 0.5 0.410879 -0.645641
324 1 0.778043 0.652843 0.5 -0.225793 -0.626643
325 1 0.794978 0.170463 0.5 0.661941 0.408202
326 1 0.42648 0.196738 0.5 -0.440548 0.417708
327 1 0.170109 0.168486 0.5 0.047113 0.099271
328 1 0.655134 0.306221 0.5 0.267424 -0.466164
329 1 0.212547 0.637541 0.5 0.234672 0.919812
330 1 0.648257 0.281687 0.5 -0.0314167 0.5781
331 1 0.693588 0.549264 0.5 -0.0229705 0.863135
332 1 0.778573 0.223881 0.5 -0.01149 0.830409
333 1 0.817827 0.321554 0.5 -0.927228 -0.167918
334 1 0.802013 0.744815 0.5 0.201734 -0.396293
335 1 0.137875 0.85991 0.5 -0.0801693 -0.364267
336 1 0.13984 0.988348 0.5 0.0302051 0.20176
337 1 0.631022 0.212264 0.5 -0.491643 -0.71059
338 1 0.776558 0.62343 0.5 -0.30084 0.166154
339 1 0.680695 0.383492 0.5 0.414925 -0.504141
340 1 0.949579 0.351392 0.5 0.0764094 -0.0313354
341 1 0.30724 0.0179331 0.5 0.836672 -0.30663
342 1 0.0905887 0.538676 0.5 0.294189 0.0892539
343 1 0.146785 0.0482413 0.5 0.864931 -0.263573
344 1 0.957904 0.208968 0.5 -0.479879 0.582871
345 1 0.626978 0.671517 0.5 0.472724 0.191404
346 1 0.811569 0.803569 0.5 0 0
347 1 0.208809 0.797263 0.5 0.345051 -0.0415681
348 1 0.268456 0.0570976 0.5 -0.00526404 0.637897
349 1 0.921023 0.748533 0.5 -0.763288 -0.225225
350 1 0.243297 0.464458 0.5 -0.370329 0.854361
351 1 0.615698 0.898451 0.5 0.733339 0.175407
352 1 0.221095 0.246118 0.5 0.531298 -0.369171
353 1 0.12258 0.380264 0.5 0.84168 -0.00722733
354 1 0.425156 0.993345 0.5 0.607458 0.685298
355 1 0.986558 0.933499 0.5 0.0637095 -0.497409
356 1 0.320557 0.706053 0.5 -0.0258763 0.653742
357 1 0.27967 0.0384062 0.5 0.298554 -0.467474
358 1 0.0532999 0.583058 0.5 0.034687 0.472863
359 1 0.127948 0.652366 0.5 -0.660215 0.0220376
360 1 0.411086 0.922352 0.5 0.471615 0.774701
361 1 0.0792265 0.741051 0.5 0.679251 0.248
362 1 0.881083 0.783954 0.5 0.0619253 0.923791
363 1 0.632432 0.872984 0.5 -0.29094 -0.280836
364 1 0.287062 0.595584 0.5 0.219893 -0.322299
365 1 0.983561 0.62138 0.5 0.249893 0.050123
366 1 0.6916 0.962804 0.5 0.0533312 -0.0656392
367 1 0.656769 0.877182 0.5 0.475257 0.219748
368 1 0.0890063 0.151789 0.5 -0.11414 -0.073239
369 1 0.574073 0.979127 0.5 -0.845994 0.192203
370 1 0.063611 0.650237 0.5 0.81332 -0.156586
371 1 0.204801 0.723067 0.5 0.0686307 -0.576573
372 1 0.862153 0.905302 0.5 -0.293277 -0.368867
373 1 0.876693 0.927855 0.5 0.26598 -0.169549
374 1 0.0818946 0.145222 0.5 0.394847 -0.624424
375 1 0.258855 0.587031 0.5 0.239126 -0.122414
376 1 0.581908 0.195076 0.5 0.368352 0.916583
377 1 0.969732 0.095541 0.5 -0.132881 -0.342954
378 1 0.935825 0.783396 0.5 -0.811375 0.150769
379 1 0.785485 0.744535 0.5 -0.173145 0.117816
380 1 0.293254 0.0277492 0.5 0.875549 -0.330124
381 1 0.533198 0.364801 0.5 0.403906 0.392173
382 1 0.998406 0.614057 0.5 0.498488 0.445068
383 1 0.288187 0.0666313 0.5 -0.152885 -0.119246
384 1 0.996459 0.495124 0.5 -0.00376612 -0.135205
385 1 0.901566 0.896177 0.5 0.104196 0.353598
386 1 0.968133 0.798966 0.5 -0.287497 -0.296644
387 1 0.752362 0.546298 0.5 0.511677 0.382249
388 1 0.354945 0.445934 0.5 -0.395899 -0.535147
389 1 0.591509 0.126052 0.5 0.897406 -0.217842
390 1 0.527983 0.929822 0.5 -0.217545 0.588085
391 1 0.787823 0.337906 0.5 -0.563405 -0.295732
392 1 0.494922 0.417977 0.5 -0.271532 -0.711534
393 1 0.491196 0.946774 0.5 0.181925 -0.956165
394 1 0.306767 0.107403 0.5 0.352094 0.721476
395 1 0.683194 0.463789 0.5 -0.0876355 -0.452638
396 1 0.543095 0.189472 0.5 -0.472337 0.303578
397 1 0.0976417 0.931745 0.5 0.274419 -0.0601482
398 1 0.114413 0.892779 0.5 0.145299 0.116107
399 1 0.408941 0.326622 0.5 0.114529 0.0810686
400 1 0.346958 0.193219 0.5 -0.0459006 -0.612181
401 1 0.160183 0.32723 0.5 0.56262 0.477686
402 1 0.142427 0.0967927 0.5 0.376511 0.352747
403 1 0.404077 0.185873 0.5 0.491451 -0.35309
404 1 0.604492 0.948304 0.5 0.864141 -0.287244
405 1 0.290824 0.945653 0.5 0.0345779 -0.792333
406 1 0.530238 0.164248 0.5 0.610829 0.369436
407 1 0.929844 0.543488 0.5 0.0963945 0.078365
408 1 0.97071 0.548345 0.5 -0.0425538 -0.155604
409 1 0.691855 0.784395 0.5 0.505846 0.800221
410 1 0.365629 0.811195 0.5 -0.115537 -0.351478
411 1 0.0381404 0.866052 0.5 -0.257417 -0.13394
412 1 0.30336 0.609047 0.5 0.219411 0.355267
413 1 0.183905 0.108464 0.5 -0.216718 0.582597
414 1 0.971622 0.401969 0.5 -0.483001 0.810547
415 1 0.995617 0.928686 0.5 -0.218847 -0.0206523
416 1 0.229275 0.135526 0.5 -0.0405465 -0.805508
417 1 0.711939 0.494501 0.5 -0.0264881 -0.898321
418 1 0.72393 0.376659 0.5 0.295676 -0.0136149
419 1 0.700457 0.391832 0.5 0.27938 -0.311621
420 1 0.721974 0.848746 0.5 0.291093 -0.44684
421 1 0.302188 0.973134 0.5 -0.130462 -0.269922
422 1 0.955659 0.0399889 0.5 0 0
423 1 0.778563 0.784499 0.5 -0.0949891 0.502271
424 1 0.842994 0.222633 0.5 0.646359 0.451683
425 1 0.131317 0.470066 0.5 0.770164 0.134419
426 1 0.370872 0.706875 0.5 -0.73675 -0.302789
427 1 0.540684 0.468627 0.5 0 0
428 1 0.050507 0.450127 0.5 -0.838469 -0.188252
429 1 0.754522 0.804455 0.5 -0.157808 0.655698
430 1 0.209346 0.837062 0.5 0.128397 0.198999
431 1 0.809675 0.179195 0.5 0.293506 0.308076
432 1 0.483133 0.555516 0.5 -0.48338 -0.603652
433 1 0.142883 0.915177 0.5 -0.198297 0.936828
434 1 0.37826 0.52013 0.5 0.590773 -0.42783
435 1 0.959671 0.838113 0.5 -0.141521 0.371465
436 1 0.099745 0.691354 0.5 -0.0490929 -0.708978
437 1 0.117187 0.901721 0.5 0.437338 0.434815
438 1 0.373088 0.528492 0.5 0.905885 0.235035
439 1 0.00821858 0.456905 0.5 0.232697 0.166464
440 1 0.978236 0.0549235 0.5 0.791287 0.580484
441 1 0.961126 0.966543 0.5 -0.802969 0.0745981
442 1 0.126641 0.148564 0.5 0.430033 0.242275
443 1 0.891147 0.129769 0.5 -0.840616 -0.323575
444 1 0.700008 0.470514 0.5 0.173906 -0.764932
445 1 0.42258 0.311875 0.5 -0.205112 -0.120766
446 1 0.0680998 0.15701 0.5 -0.269312 -0.540477
447 1 0.887237 0.432398 0.5 0.252694 0.87196
448 1 0.00625492 0.550537 0.5 0.117965 0.399733
449 1 0.874009 0.128203 0.5 -0.662931 -0.405128
450 1 0.949707 0.645678 0.5 0.266708 0.0895
451 1 0.492402 0.268581 0.5 -0.725049 0.0886813
452 1 0.441984 0.844959 0.5 0.105469 -0.6083
453 1 0.709081 0.937381 0.5 0.0519775 0.80548
454 1 0.102596 0.511168 0.5 0.00979831 -0.202357
455 1 0.0758298 0.205096 0.5 -0.591993 0.492604
456 1 0.288284 0.878097 0.5 0.0140336 0.331754
457 1 0.0921517 0.224708 0.5 0.210275 0.450589
458 1 0.725367 0.272938 0.5 -0.0961456 0.906829
459 1 0.0442233 0.00260904 0.5 -0.837737 -0.122427
460 1 0.206405 0.848005 0.5 0.0983445 -0.529808
461 1 0.387124 0.471634 0.5 -0.503981 -0.777446
462 1 0.873058 0.692346 0.5 -0.230453 -0.0723263
463 1 0.164912 0.469685 0.5 0.401387 0.515914
464 1 0.924869 0.825918 0.5 0.110695 -0.381452
465 1 0.0108686 0.0568107 0.5 0.522025 0.386727
466 1 0.875006 0.0570317 0.5 -0.414373 0.0994661
467 1 0.754465 0.955667 0.5 0.582911 0.562232
468 1 0.708905 0.285999 0.5 -0.638755 0.155351
469 1 0.325278 0.269536 0.5 0.259473 0.205107
470 1 0.959673 0.890647 0.5 0.107488 0.35352
471 1 0.918271 0.272299 0.5 -0.57337 0.670259
472 1 0.440245 0.540476 0.5 -0.0189654 0.0606477
473 1 0.135644 0.151542 0.5 -0.148738 0.261694
474 1 0.840295 0.256011 0.5 -0.245539 -0.66415
475 1 0.18275 0.822838 0.5 0.44581 0.299128
476 1 0.390849 0.203551 0.5 0.427895 0.282519
477 1 0.994169 0.586551 0.5 0.37164 -0.0976584
478 1 0.38086 0.491116 0.5 -0.00747942 -0.0684628
479 1 0.112494 0.219655 0.5 0.273077 -0.102943
480 1 0.250884 0.419613 0.5 0.31485 -0.0167933
481 1 0.14105 0.46821 0.5 0.491178 0.327394
482 1 0.106687 0.56388 0.5 -0.0363114 0.286537
483 1 0.299397 0.73832 0.5 -0.11872 0.838351
484 1 0.988838 0.274882 0.5 0.342453 0.00586246
485 1 0.719128 0.290691 0.5 -0.808441 0.152727
486 1 0.0735359 0.749569 0.5 -0.192173 0.226512
487 1 0.952802 0.632986 0.5 -0.0149345 -0.81222
488 1 0.924447 0.714733 0.5 0.260635 -0.732473
489 1 0.912228 0.686673 0.5 0.916674 0.161356
490 1 0.00451133 0.574614 0.5 -0.0999857 -0.468598
491 1 0.150998 0.492702 0.5 -0.567761 -0.0808973
492 1 0.0553997 0.203718 0.5 -0.57247 -0.568315
493 1 0.0132748 0.316286 0.5 -0.0652741 -0.837395
494 1 0.905819 0.564145 0.5 -0.088558 0.65559
495 1 0.961717 0.718268 0.5 0.081601 -0.341236
496 1 0.0668685 0.53496 0.5 -0.549379 0.135628
497 1 0.605355 0.63051 0.5 -0.219876 -0.466799
498 1 0.162906 0.586184 0.5 0.156833 -0.186059
499 1 0.223368 0.898783 0.5 0.768973 -0.24565
500 1 0.755264 0.491612 0.5 -0.00324161 -0.718818
501 1 0.938421 0.813593 0.5 0.425308 -0.100485
502 1 0.0283187 0.861091 0.5 -0.558315 0.722765
503 1 0.502026 0.587577 0.5 -0.346262 -0.60859
504 1 0.973454 0.164545 0.5 0.516401 -0.463514
505 1 0.509202 0.316788 0.5 0.471816 0.345856
506 1 0.619981 0.227668 0.5 0.00266168 -0.183504
507 1 0.24007 0.693495 0.5 0.590068 -0.146038
508 1 0.142955 0.384066 0.5 -0.102667 0.309691
509 1 0.30834 0.92151 0.5 -0.0139839 0.356344
510 1 0.00746219 0.863745 0.5 -0.177831 -0.175479
511 1 0.221771 0.312814 0.5 0.341107 -0.272224
512 1 0.823157 0.451961 0.5 -0.738394 0.147836
513 1 0.851176 0.194957 0.5 0.247281 -0.642424
514 1 0.501694 0.22623 0.5 0.453761 -0.879733
515 1 0.136288 0.0125828 0.5 -0.568201 -0.146504
516 1 0.488116 0.174337 0.5 -0.404415 0.259472
517 1 0.796572 0.72463 0.5 -0.0423754 -0.176887
518 1 0.654859 0.616918 0.5 0.119055 -0.333275
519 1 0.229643 0.740864 0.5 -0.0591196 0.137823
520 1 0.903418 0.404455 0.5 0.0518586 0.545068
521 1 0.331932 0.842179 0.5 0.405847 0.609666
522 1 0.633125 0.0454825 0.5 -0.00808142 0.595881
523 1 0.961505 0.572678 0.5 -0.499307 -0.080208
524 1 0.31599 0.749233 0.5 0.219131 -0.231158
525 1 0.819494 0.907868 0.5 0.104927 -0.377329
526 1 0.334422 0.758107 0.5 0.255563 0.551152
527 1 0.0498287 0.719219 0.5 -0.0742717 -0.786577
528 1 0.976999 0.329539 0.5 -0.153974 -0.144733
529 1 0.594227 0.644933 0.5 -0.433329 -0.560423
530 1 0.281913 0.54863 0.5 -0.453297 0.028265
531 1 0.541004 0.0268529 0.5 -0.388858 0.0466854
532 1 0.68544 0.243654 0.5 -0.261259 -0.111192
533 1 0.00102184 0.395339 0.5 -0.0832863 0.388954
534 1 0.197795 0.373354 0.5 0.15315 -0.469661
535 1 0.682676 0.145771 0.5 -0.160897 -0.598856
536 1 0.00429532 0.448228 0.5 0.28409 0.549537
537 1 0.628757 0.94146 0.5 0.419295 0.224646
538 1 0.201492 0.0381927 0.5 -0.841216 0.490929
539 1 0.313256 0.820174 0.5 -0.0958149 0.517137
540 1 0.98294 0.796645 0.5 0.443118 -0.300101
541 1 0.987177 0.858847 0.5 -0.114133 -0.840359
542 1 0.862155 0.104414 0.5 -0.142751 0.177812
543 1 0.811385 0.228967 0.5 0.126172 0.556611
544 1 0.825144 0.269226 0.5 0.0331283 -0.406325
545 1 0.166013 0.666622 0.5 -0.748661 -0.258689
546 1 0.476414 0.8922 0.5 -0.556678 0.202801
547 1 0.464827 0.532985 0.5 0 0
548 1 0.814989 0.778223 0.5 0.409517 -0.412571
549 1 0.0624126 0.785827 0.5 -0.370593 0.699998
550 1 0.469623 0.393645 0.5 0.227784 0.0486273
551 1 0.889661 0.892901 0.5 -0.388574 0.0554664
552 1 0.205341 0.173929 0.5 -0.192226 -0.619769
553 1 0.844012 0.958176 0.5 0.257434 0.446427
554 1 0.983955 0.0472462 0.5 0.286367 -0.0210345
555 1 0.16379 0.443057 0.5 -0.0691436 0.458268
556 1 0.381819 0.18351 0.5 0.656619 0.295112
557 1 0.00173416 0.879408 0.5 -0.353943 0.65615
558 1 0.187165 0.47459 0.5 0.280734 -0.028221
559 1 0.851987 0.482051 0.5 0.149379 0.396137
560 1 0.8404 0.792367 0.5 0.118862 0.344454
561 1 0.446463 0.241002 0.5 -0.876742 0.00117962
562 1 0.240244 0.794 0.5 -0.0624084 -0.543156
563 1 0.883275 0.419991 0.5 0.463432 0.00553079
564 1 0.963943 0.766608 0.5 -0.202559 -0.206823
565 1 0.748448 0.931534 0.5 -0.449682 -0.476142
566 1 0.415085 0.444335 0.5 0.275308 0.391744
567 1 0.0817655 0.804997 0.5 0.28992 -0.554533
568 1 0.19959 0.196354 0.5 -0.793957 -0.329442
569 1 0.75684 0.982387 0.5 0.290013 0.575064
570 1 0.314146 0.848935 0.5 0.110814 -0.350351
571 1 0.941778 0.823361 0.5 0.29804 0.474027
572 1 0.139922 0.353218 0.5 0.72798 -0.241025
573 1 0.641894 0.514117 0.5 0.817275 -0.155281
574 1 0.317209 0.403127 0.5 0.138223 -0.335298
575 1 0.668878 0.570044 0.5 -0.283227 0.857886
576 1 0.235988 0.615722 0.5 0.070622 -0.290238
577 1 0.585582 0.933279 0.5 -0.198279 0.822889
578 1 0.261561 0.460347 0.5 -0.334992 0.475214
579 1 0.804684 0.382103 0.5 -0.725552 -0.35046
580 1 0.938401 0.129907 0.5 -0.194037 0.00449867
581 1 0.974346 0.0460623 0.5 0.106117 0.846409
582 1 0.285824 0.814747 0.5 -0.598615 -0.178875
583 1 0.343759 0.867542 0.5 -0.584885 -0.555311
584 1 0.0216135 0.587461 0.5 -0.395714 -0.155671
585 1 0.946932 0.662679 0.5 -0.211685 -0.0755345
586 1 0.532836 0.693202 0.5 -0.0483626 -0.25444
587 1 0.783322 0.682905 0.5 -0.0195981 -0.185951
588 1 0.136097 0.521896 0.5 -0.262318 0.416819
589 1 0.172959 0.369897 0.5 -0.382195 -0.334726
590 1 0.887979 0.807433 0.5 0.487389 -0.0114726
591 1 0.919315 0.667949 0.5 -0.263714 0.395718
592 1 0.0659808 0.88296 0.5 -0.622302 -0.289536
593 1 0.149912 0.71464 0.5 0.542146 0.475143
594 1 0.286007 0.315759 0.5 -0.85986 -0.31755
595 1 0.077707 0.356381 0.5 -0.354815 -0.107783
596 1 0.620229 0.366594 0.5 0.0826513 -0.237021
597 1 0.408109 0.579839 0.5 -0.744121 -0.637005
598 1 0.26181 0.103529 0.5 -0.130041 -0.531408
599 1 0.222176 0.284879 0.5 0.234959 0.567585
600 1 0.589347 0.788275 0.5 0.37484 0.178253
601 1 0.622861 0.409665 0.5 -0.328171 -0.146588
602 1 0.501907 0.398958 0.5 0.804516 0.0249222
603 1 0.891622 0.0440733 0.5 0 0
604 1 0.935397 0.412388 0.5 0.497342 0.770614
605 1 0.517292 0.794525 0.5 -0.282168 -0.723369
606 1 0.892497 0.78813 0.5 0.0351283 0.277526
607 1 0.680693 0.78273 0.5 -0.0700361 0.676992
608 1 0.0121087 0.177332 0.5 -0.398979 -0.254926
609 1 0.317726 0.108912 0.5 0.550738 0.787409
610 1 0.567311 0.525742 0.5 0.211901 -0.510582
611 1 0.914454 0.177491 0.5 -0.506072 0.274728
612 1 0.636563 0.990559 0.5 0.381592 0.059269
613 1 0.854078 0.32479 0.5 -0.466389 0.186382
614 1 0.461287 0.704985 0.5 -0.451459 0.778077
615 1 0.595693 0.714857 0.5 0.177969 0.417145
616 1 0.894171 0.341985 0.5 -0.298926 0.266381
617 1 0.882849 0.123405 0.5 -0.795772 -0.558849
618 1 0.764069 0.283704 0.5 -0.72106 -0.383032
619 1 0.72516 0.171481 0.5 0.040605 0.406501
620 1 0.746854 0.177504 0.5 0.00352431 -0.500021
621 1 0.895346 0.663731 0.5 -0.89405 0.139285
622 1 0.722092 0.523616 0.5 0.22672 -0.306164
623 1 0.148534 0.607977 0.5 -0.226604 -0.38625
624 1 0.0264564 0.665514 0.5 0.474657 0.0334788
625 1 0.968413 0.55825 0.5 0.11 -0.556118
626 1 0.342139 0.636731 0.5 -0.0320162 -0.474154
627 1 0.593502 0.881229 0.5 0.117525 0.400534
628 1 0.932219 0.883669 0.5 0.472285 0.0448821
629 1 0.378629 0.475824 0.5 -0.591953 -0.482509
630 1 0.0158869 0.942685 0.5 -0.389684 -0.415538
631 1 0.866314 0.925358 0.5 0.630078 -0.241297
632 1 0.542646 0.34284 0.5 -0.184835 -0.00901273
633 1 0.0601204 0.0755787 0.5 -0.444115 -0.84654
634 1 0.436624 0.778933 0.5 0.21507 0.259364
635 1 0.195244 0.991993 0.5 -0.00712227 -0.33327