# LAMMPS data file written by Ovito 3.7.11
9322 atoms
1 atom types
-58.36 58.36 xlo xhi
-58.36 58.36 ylo yhi
-0.5 0.5 zlo zhi

Atoms  # atomic

1 1 -53.517450608 -37.8592992 0.0
2 1 50.70865384 -12.59093656 0.0
3 1 -49.178326248 54.68226952 0.0
4 1 36.39866512 -16.20003568 0.0
5 1 -48.49622624 -42.25509112 0.0
6 1 -1.91724272 6.337896 0.0
7 1 39.32728664 -20.96431264 0.0
8 1 -47.527496928 33.20077056 0.0
9 1 40.03507672 28.54119144 0.0
10 1 -1.69255672 -18.99372888 0.0
11 1 -55.737289928 2.48181736 0.0
12 1 48.39864832 -3.38219544 0.0
13 1 -42.44546144 -14.78468896 0.0
14 1 -30.57106896 39.02159696 0.0
15 1 25.17848824 -39.27604656 0.0
16 1 -49.391398608 53.14681792 0.0
17 1 12.42881248 -1.10627216 0.0
18 1 -50.52231036 40.71753856 0.0
19 1 13.97290136 -18.56641696 0.0
20 1 -57.00406376 -28.56733672 0.0
21 1 28.1493624 21.44274792 0.0
22 1 -51.111174432 -35.33102728 0.0
23 1 -46.54700224 -44.6454 0.0
24 1 -34.42971544 -42.98727568 0.0
25 1 47.73976392 56.31051352 0.0
26 1 57.18824792 -26.10057624 0.0
27 1 -58.2846236246 -12.65279816 0.0
28 1 49.7571524 -14.7668308 0.0
29 1 -6.05169856 -19.2652196 0.0
30 1 42.20396776 -51.147952904 0.0
31 1 49.56584832 -8.6915548 0.0
32 1 0.27814376 -46.762654112 0.0
33 1 -41.47773592 26.30273528 0.0
34 1 -46.1096524 -37.87715736 0.0
35 1 52.38708744 -27.7274196 0.0
36 1 44.03775568 -32.00625808 0.0
37 1 13.15749544 -13.21013616 0.0
38 1 -50.581207272 2.4896376 0.0
39 1 -24.93162544 44.18353896 0.0
40 1 31.19318656 24.60737728 0.0
41 1 49.34583112 16.51517968 0.0
42 1 36.11993776 -30.87337376 0.0
43 1 23.46865696 -36.29723544 0.0
44 1 31.2161804 -22.72573416 0.0
45 1 -36.79026072 2.23203656 0.0
46 1 -25.80935984 1.47113888 0.0
47 1 50.98107832 -22.02004504 0.0
48 1 -16.2293324 -52.398479312 0.0
49 1 -17.48022064 -14.49067128 0.0
50 1 56.48967872 -18.58264104 0.0
51 1 30.11749504 -37.76989168 0.0
52 1 -42.91397552 56.1090548 0.0
53 1 41.7921796 12.77838888 0.0
54 1 39.54520288 -26.66573448 0.0
55 1 -27.17206584 -28.7387984 0.0
56 1 -37.73826056 -23.46433832 0.0
57 1 -43.72996504 2.68175872 0.0
58 1 54.61410504 12.37068592 0.0
59 1 53.02169408 -7.64072464 0.0
60 1 7.62636808 -5.09436112 0.0
61 1 42.15727976 -20.6746136 0.0
62 1 -17.54616744 -57.7072165544 0.0
63 1 -0.88870608 -20.9261452 0.0
64 1 11.93462 -6.9903608 0.0
65 1 27.99727624 53.069666 0.0
66 1 9.00413096 22.99944256 0.0
67 1 -49.282405472 -23.05348392 0.0
68 1 47.07761136 10.57856704 0.0
69 1 -40.96883672 -4.49967272 0.0
70 1 57.63855368 -46.964708104 0.0
71 1 -44.10346904 12.90012784 0.0
72 1 9.6113084 -10.03115024 0.0
73 1 -55.928477288 -39.16808056 0.0
74 1 13.61106936 -31.0673624 0.0
75 1 -48.103335048 37.7956868 0.0
76 1 -24.48178656 -34.21191592 0.0
77 1 56.66767672 46.91992264 0.0
78 1 -23.80539416 -10.37967616 0.0
79 1 -58.1440306496 -32.08679488 0.0
80 1 47.43360736 7.02981216 0.0
81 1 -36.80846904 16.29924768 0.0
82 1 38.12203592 18.17412104 0.0
83 1 -51.925436496 -34.16487776 0.0
84 1 -46.61925192 12.35761328 0.0
85 1 28.08143136 -35.9334192 0.0
86 1 -7.31204112 13.01801504 0.0
87 1 50.37880312 -11.42116872 0.0
88 1 -14.70170104 -9.05525432 0.0
89 1 46.606296 58.0932948 0.0
90 1 -57.2186499784 18.03895928 0.0
91 1 11.9853932 -21.16962312 0.0
92 1 -26.46287512 28.78536968 0.0
93 1 49.44294216 -12.17926512 0.0
94 1 -58.2632057381 33.51824896 0.0
95 1 -5.87871952 -52.898356056 0.0
96 1 -44.21376944 -27.82943288 0.0
97 1 50.51151376 18.81211256 0.0
98 1 -16.00021104 -48.077750024 0.0
99 1 -47.7562798 40.23034928 0.0
100 1 -30.59196184 53.60902912 0.0
101 1 -11.40109288 -43.72949816 0.0
102 1 -39.71199576 -50.288893704 0.0
103 1 20.2730968 35.60555272 0.0
104 1 -51.016047632 -2.02485856 0.0
105 1 24.24087648 -23.2191096 0.0
106 1 -10.65093344 55.59093472 0.0
107 1 55.81655448 8.0636012 0.0
108 1 40.259646 -29.55537152 0.0
109 1 11.45933616 -23.89842 0.0
110 1 -45.09663952 -30.78770128 0.0
111 1 -37.92676336 48.90474624 0.0
112 1 52.34868656 35.32075592 0.0
113 1 49.48682888 10.8736352 0.0
114 1 -29.2949692 -41.75587968 0.0
115 1 -47.321065936 38.91631552 0.0
116 1 57.57879304 -20.11330712 0.0
117 1 -45.745486 -18.70461344 0.0
118 1 7.0358816 39.38354568 0.0
119 1 55.1391116 45.45707088 0.0
120 1 9.44136408 -21.40948272 0.0
121 1 23.6789864 -28.62021088 0.0
122 1 -17.93426144 -20.15917808 0.0
123 1 42.12354768 -37.35413504 0.0
124 1 -26.31639152 30.81372984 0.0
125 1 43.35937904 -41.37163744 0.0
126 1 6.8380412 -29.22283624 0.0
127 1 -35.6194424 11.29627832 0.0
128 1 49.3748944 -2.86792712 0.0
129 1 46.98073376 2.69938344 0.0
130 1 -56.691697696 -9.0504688 0.0
131 1 -52.675409184 -10.08192344 0.0
132 1 17.65133216 -28.3722976 0.0
133 1 -30.16138176 -38.06694408 0.0
134 1 -35.28585664 50.2765564 0.0
135 1 13.60791792 0.81458888 0.0
136 1 24.9057136 -50.711385088 0.0
137 1 13.56496496 46.90019696 0.0
138 1 54.84345984 24.2765928 0.0
139 1 52.38988872 3.7665544 0.0
140 1 -31.13704424 -21.10145864 0.0
141 1 -17.52632504 -45.16760528 0.0
142 1 -36.113168 57.46662512 0.0
143 1 -48.615187264 -15.07975712 0.0
144 1 -18.2684308 -47.418632184 0.0
145 1 28.35525648 -57.071749688 0.0
146 1 -49.0615012 -8.30427784 0.0
147 1 39.78354512 -23.1969328 0.0
148 1 -25.7793628 -11.5681192 0.0
149 1 -41.7145608 16.82332048 0.0
150 1 22.10385 57.73519784 0.0
151 1 -40.53125344 16.2713516 0.0
152 1 34.45481024 -7.73666848 0.0
153 1 -7.64259216 -50.169687568 0.0
154 1 30.66572888 -44.68321728 0.0
155 1 21.15048104 -35.310718 0.0
156 1 -44.90300104 52.17815864 0.0
157 1 -43.57250976 5.37367208 0.0
158 1 -40.94689336 -10.71909792 0.0
159 1 -30.60935312 48.9687088 0.0
160 1 49.0317376 9.62858296 0.0
161 1 -56.256612224 3.5506224 0.0
162 1 -17.04450488 -30.02703704 0.0
163 1 54.43750768 -40.19638376 0.0
164 1 14.19350216 -40.27738744 0.0
165 1 15.74307688 -52.2246132 0.0
166 1 -18.59793136 -28.28895952 0.0
167 1 -49.864441424 -52.39624996 0.0
168 1 -44.41581176 44.82736648 0.0
169 1 51.93911608 -15.8120584 0.0
170 1 38.1709416 44.59976248 0.0
171 1 49.8137616 -45.91262904 0.0
172 1 46.1785172 -22.26690784 0.0
173 1 8.31384888 49.28770456 0.0
174 1 32.53546656 -45.86115552 0.0
175 1 -11.13718896 48.40997016 0.0
176 1 -39.29740632 -13.39315312 0.0
177 1 54.97663736 44.34706368 0.0
178 1 55.48822112 -0.20881208 0.0
179 1 13.65717376 23.48184632 0.0
180 1 -31.81985624 42.6751664 0.0
181 1 -28.57679104 -31.36348104 0.0
182 1 56.52621208 57.72982872 0.0
183 1 -51.508956192 56.40458984 0.0
184 1 -0.33125136 -29.8925756 0.0
185 1 -39.30709408 41.634024 0.0
186 1 -3.33434024 -7.35639472 0.0
187 1 -16.45670296 -11.18200944 0.0
188 1 44.71321432 33.3743332 0.0
189 1 56.74961416 -15.036454 0.0
190 1 48.27842672 -2.27440592 0.0
191 1 47.4916172 -39.52337624 0.0
192 1 -32.06263384 -31.82942728 0.0
193 1 1.36900888 54.42665272 0.0
194 1 -36.39119504 10.14775352 0.0
195 1 14.28349328 -8.84760944 0.0
196 1 -47.993758312 -32.28405168 0.0
197 1 -14.14833152 -45.13177224 0.0
198 1 9.97617512 48.01265528 0.0
199 1 39.11007072 -47.70381416 0.0
200 1 21.82383872 38.18809944 0.0
201 1 28.8625216 58.30992712 0.0
202 1 0.43431512 -39.0329188 0.0
203 1 3.03378624 -33.54147624 0.0
204 1 4.41505072 -6.07842744 0.0
205 1 46.58715392 -49.47684932 0.0
206 1 -40.6144748 19.88115104 0.0
207 1 -48.658910576 3.80122024 0.0
208 1 42.1254152 -15.7385248 0.0
209 1 -54.417735312 9.7799688 0.0
210 1 -34.57608232 -3.01511104 0.0
211 1 -54.889937744 18.82133344 0.0
212 1 -0.83186344 -10.79263152 0.0
213 1 37.44809464 5.94419944 0.0
214 1 52.71051856 -28.89076784 0.0
215 1 20.68021616 -48.406561936 0.0
216 1 40.86157104 57.10397608 0.0
217 1 -53.892822128 -35.77678096 0.0
218 1 57.87351104 15.88057304 0.0
219 1 -41.31841312 22.25115064 0.0
220 1 -37.89116376 51.19432576 0.0
221 1 -43.08065168 16.47514472 0.0
222 1 -33.00689864 9.32639488 0.0
223 1 -48.990523768 -28.96313424 0.0
224 1 48.9074308 6.70894888 0.0
225 1 25.02266704 43.67067128 0.0
226 1 55.61229448 -42.45958456 0.0
227 1 -36.2112128 -56.589030784 0.0
228 1 34.07745448 -48.67270688 0.0
229 1 47.88041152 -5.2039612 0.0
230 1 33.74561952 -10.44632328 0.0
231 1 -54.256323224 -30.78279904 0.0
232 1 44.4983328 -18.35375312 0.0
233 1 30.29502616 -26.39179264 0.0
234 1 35.82580336 44.75616728 0.0
235 1 -56.199547816 30.89204896 0.0
236 1 -43.45228816 -16.19338264 0.0
237 1 57.47888072 -23.50530704 0.0
238 1 -56.6608486 6.22479432 0.0
239 1 14.45997392 -3.46821808 0.0
240 1 30.723622 6.35236928 0.0
241 1 -13.4239672 14.58579808 0.0
242 1 -29.8925756 33.34468632 0.0
243 1 -6.73871248 -15.07182016 0.0
244 1 -32.82026336 -34.89075944 0.0
245 1 -3.6889356 -36.26537088 0.0
246 1 56.2141028 -23.85558376 0.0
247 1 -44.86354968 26.39646144 0.0
248 1 -36.47768456 -20.26364248 0.0
249 1 -3.76036824 -39.215002 0.0
250 1 -8.91752472 -16.34336784 0.0
251 1 -25.75099984 48.32464784 0.0
252 1 -24.35397816 -14.16957456 0.0
253 1 -45.80466304 14.92650376 0.0
254 1 14.72411128 -39.168314 0.0
255 1 57.17657592 -56.177195936 0.0
256 1 39.43712016 54.47941016 0.0
257 1 -45.20962448 -12.1890696 0.0
258 1 27.10950392 -11.7904708 0.0
259 1 17.67619352 -3.70154136 0.0
260 1 -15.52761176 23.58024128 0.0
261 1 -51.557476696 36.97794648 0.0
262 1 -26.64285736 34.42142832 0.0
263 1 48.35079312 -43.89115536 0.0
264 1 -28.8905344 -0.12862544 0.0
265 1 50.42455736 -21.05582112 0.0
266 1 -32.34124448 6.3244732 0.0
267 1 -19.82174056 38.35629296 0.0
268 1 51.21288424 -25.43188736 0.0
269 1 32.05154544 -12.00255104 0.0
270 1 -21.5646036 4.55779928 0.0
271 1 -43.63565528 3.81044112 0.0
272 1 24.02984672 33.56330288 0.0
273 1 -48.189240968 -56.816949928 0.0
274 1 46.91548728 -36.96137224 0.0
275 1 -54.623827816 -45.62456408 0.0
276 1 -56.439734232 -19.78590752 0.0
277 1 -15.23160984 -5.76561784 0.0
278 1 27.6212044 51.83325104 0.0
279 1 -13.24631936 -50.783039496 0.0
280 1 40.4271392 -18.870706 0.0
281 1 35.62609544 -33.73534816 0.0
282 1 40.24412224 58.18853832 0.0
283 1 12.07094896 -27.2202712 0.0
284 1 -53.9001288 -13.88466104 0.0
285 1 -53.10958424 -52.248739224 0.0
286 1 11.77459688 26.31172272 0.0
287 1 -20.85016048 -0.97951424 0.0
288 1 0.32413144 7.0504716 0.0
289 1 53.536546 32.83882184 0.0
290 1 -25.18012232 -55.360097576 0.0
291 1 45.72050792 19.80890136 0.0
292 1 -27.16763048 12.31302624 0.0
293 1 -21.66369888 40.48538248 0.0
294 1 -24.51656912 -9.33444856 0.0
295 1 17.69218416 21.16740544 0.0
296 1 53.56736008 -45.09698968 0.0
297 1 -14.47316328 -0.17881504 0.0
298 1 -42.6804188 -1.79468672 0.0
299 1 -11.86096968 -12.8415344 0.0
300 1 26.396228 36.05562504 0.0
301 1 20.24298304 52.04101264 0.0
302 1 32.09776656 43.16469008 0.0
303 1 38.07254664 -9.77191512 0.0
304 1 -44.3868652 9.31238848 0.0
305 1 5.94606696 -37.08462856 0.0
306 1 -49.5485154 14.11074768 0.0
307 1 -10.6063464 -22.91820544 0.0
308 1 21.29778168 15.84112168 0.0
309 1 -18.38059872 -33.43841248 0.0
310 1 42.66326096 -25.628794 0.0
311 1 33.57159 -46.693964392 0.0
312 1 51.08939448 0.92395552 0.0
313 1 -35.51719568 28.84641424 0.0
314 1 57.68407448 12.56467456 0.0
315 1 7.31577616 18.22431064 0.0
316 1 -43.87960008 23.13402072 0.0
317 1 -35.31585368 -25.60848472 0.0
318 1 -34.30120672 -31.37935496 0.0
319 1 19.90029312 -7.71857688 0.0
320 1 -24.97936392 19.22600168 0.0
321 1 54.73946232 17.30969272 0.0
322 1 -26.3973952 -32.91468984 0.0
323 1 -8.11659208 -27.8488084 0.0
324 1 35.6031016 -15.12912968 0.0
325 1 -36.86029272 51.79006464 0.0
326 1 -36.49706008 -27.71212928 0.0
327 1 -31.5774288 31.70803848 0.0
328 1 31.22014888 -20.47747352 0.0
329 1 -42.58750968 -7.44626912 0.0
330 1 -14.71815856 -23.47040776 0.0
331 1 45.7384828 -23.9316852 0.0
332 1 35.68924096 -22.53244584 0.0
333 1 -55.228495776 21.58421256 0.0
334 1 36.36458288 -2.37034976 0.0
335 1 53.12382408 4.64230456 0.0
336 1 50.94664592 33.101792 0.0
337 1 49.05146328 -28.11387952 0.0
338 1 43.77653632 -22.31908168 0.0
339 1 10.00909016 -12.39659776 0.0
340 1 14.94354488 -44.62042192 0.0
341 1 -54.470457736 12.87748416 0.0
342 1 -41.66635544 -6.57098584 0.0
343 1 48.975712 37.25574008 0.0
344 1 -30.38011504 22.5643104 0.0
345 1 31.49374056 9.73129656 0.0
346 1 49.6579404 1.43764024 0.0
347 1 -20.96734736 17.65961928 0.0
348 1 2.48590256 -47.623195656 0.0
349 1 -52.923030664 -6.04282784 0.0
350 1 -19.09632576 -31.48790456 0.0
351 1 1.25742456 -34.239812 0.0
352 1 -27.5161564 56.8671512 0.0
353 1 -51.122577976 -37.96528096 0.0
354 1 -12.39064504 19.74820696 0.0
355 1 38.22836784 2.16900776 0.0
356 1 -3.00110464 -58.1651102816 0.0
357 1 -27.9696136 -39.34958016 0.0
358 1 -33.92781944 -21.13285632 0.0
359 1 -19.27840896 25.84694368 0.0
360 1 31.04646952 43.55115 0.0
361 1 -35.99609784 -3.49272928 0.0
362 1 30.37638 11.72954296 0.0
363 1 36.58623416 22.25757024 0.0
364 1 -22.2229044 -7.1642736 0.0
365 1 44.8718368 -22.9074672 0.0
366 1 35.33721344 54.38883544 0.0
367 1 58.15877472 24.15648792 0.0
368 1 -34.79026352 15.76443664 0.0
369 1 35.19609896 57.93420544 0.0
370 1 -38.59860368 -5.64597984 0.0
371 1 -17.96484208 6.83535664 0.0
372 1 50.14968176 -18.54785848 0.0
373 1 37.44389272 -13.67806664 0.0
374 1 45.82473888 27.49969888 0.0
375 1 10.01796088 1.04137584 0.0
376 1 -3.45094352 -25.59646256 0.0
377 1 -54.766156184 0.60239192 0.0
378 1 23.10075552 5.69395176 0.0
379 1 32.30996352 -0.59737296 0.0
380 1 57.83686096 -8.59444376 0.0
381 1 16.7423168 -9.02093864 0.0
382 1 -31.97392664 -28.35105456 0.0
383 1 -33.57439128 55.25676536 0.0
384 1 -43.7805048 -24.11832048 0.0
385 1 55.9689908 5.78627728 0.0
386 1 -54.980687544 -21.59296656 0.0
387 1 33.27021896 -6.21872488 0.0
388 1 -4.18744672 -14.98731488 0.0
389 1 16.78526976 -2.8999084 0.0
390 1 -2.37069992 47.289108 0.0
391 1 20.61765424 -24.47665088 0.0
392 1 9.89925664 18.54762504 0.0
393 1 30.9909108 -38.73609984 0.0
394 1 -33.7659288 42.18704336 0.0
395 1 28.38677088 -11.47264224 0.0
396 1 10.5666616 -37.9812716 0.0
397 1 40.42200352 5.70982568 0.0
398 1 -55.216450272 -12.78352456 0.0
399 1 -15.43516952 -19.99331896 0.0
400 1 -23.8651548 29.17019552 0.0
401 1 56.92936296 56.38323008 0.0
402 1 -35.33919768 23.62891352 0.0
403 1 -35.52583296 45.3346316 0.0
404 1 34.17818384 -58.1991516696 0.0
405 1 -34.9815676 14.62338192 0.0
406 1 18.72912464 -39.264608 0.0
407 1 -47.895036536 -22.39903488 0.0
408 1 -49.228154016 -43.21569672 0.0
409 1 39.33907536 24.07606784 0.0
410 1 17.66930704 39.04330688 0.0
411 1 10.04994216 31.29134808 0.0
412 1 -19.07998496 -11.59064616 0.0
413 1 35.67873616 7.65298024 0.0
414 1 -36.85048824 42.15762992 0.0
415 1 58.19880968 -7.5231876 0.0
416 1 -10.01434256 -16.46709104 0.0
417 1 54.5940292 -27.66859272 0.0
418 1 25.24501864 -17.525508 0.0
419 1 7.6381568 -34.13266304 0.0
420 1 31.04203416 8.7359084 0.0
421 1 -53.218577376 20.41946368 0.0
422 1 -54.470516096 6.2976276 0.0
423 1 27.2582052 3.3889652 0.0
424 1 12.39764824 -28.45960416 0.0
425 1 52.6710672 5.94233192 0.0
426 1 -16.07537872 48.17723048 0.0
427 1 0.86851352 6.0764432 0.0
428 1 -20.97936952 -32.91060464 0.0
429 1 53.49709464 -5.25660192 0.0
430 1 47.10434024 8.21428672 0.0
431 1 53.63785896 -29.77071992 0.0
432 1 -11.45886928 11.87462592 0.0
433 1 48.2543824 8.1458888 0.0
434 1 34.67564448 -9.82280504 0.0
435 1 -58.1128547376 0.63110504 0.0
436 1 -15.54640368 -17.53916424 0.0
437 1 -42.518178 37.28456992 0.0
438 1 -36.22942112 -0.09477664 0.0
439 1 -40.04768248 -24.80626816 0.0
440 1 55.6515124 27.7350064 0.0
441 1 -39.70966136 20.621506 0.0
442 1 48.54454832 42.82561848 0.0
443 1 33.5202332 30.80789384 0.0
444 1 19.1292408 8.37664424 0.0
445 1 -32.81442736 -29.7764392 0.0
446 1 -40.41616752 25.94242064 0.0
447 1 -47.233467576 -33.08580136 0.0
448 1 23.34154888 0.57111096 0.0
449 1 -57.6550006952 28.22511368 0.0
450 1 -42.87370712 -20.61485296 0.0
451 1 -37.79475304 -48.847763536 0.0
452 1 -1.07522464 41.1449672 0.0
453 1 51.16152744 54.0728744 0.0
454 1 -27.15700896 -11.7688776 0.0
455 1 37.64663536 50.32873024 0.0
456 1 -19.912432 -6.5404052 0.0
457 1 -38.46087408 30.54060504 0.0
458 1 52.12061568 0.5124008 0.0
459 1 37.4822936 10.39590024 0.0
460 1 -40.74029896 17.6019596 0.0
461 1 11.22577944 -5.95633832 0.0
462 1 40.67085056 -0.9594384 0.0
463 1 -21.71505568 -39.54870448 0.0
464 1 -43.07341504 -5.0878248 0.0
465 1 -52.954405 27.84845824 0.0
466 1 27.3609188 -53.825964912 0.0
467 1 56.02816784 10.57354808 0.0
468 1 -42.68987312 33.52863704 0.0
469 1 -21.64654104 -37.71351592 0.0
470 1 55.76636488 -8.8456252 0.0
471 1 -42.8963508 35.74876816 0.0
472 1 -39.53528168 17.7437744 0.0
473 1 -39.15010568 21.59448392 0.0
474 1 -48.056005088 46.15587352 0.0
475 1 -39.22644056 25.86491856 0.0
476 1 -10.83465072 -27.78484584 0.0
477 1 -29.96739312 -11.1269176 0.0
478 1 -5.55447136 -14.791342 0.0
479 1 -51.176782744 -42.21855776 0.0
480 1 -11.23978584 -4.24183824 0.0
481 1 -30.88959784 -18.17657216 0.0
482 1 -22.84490528 6.40921192 0.0
483 1 -24.36191512 -8.09266448 0.0
484 1 -31.23228776 30.6757668 0.0
485 1 53.06896568 -6.51075832 0.0
486 1 38.43344488 5.22765536 0.0
487 1 -39.32390176 -10.22152056 0.0
488 1 -56.255001488 -13.414046 0.0
489 1 35.14392512 -31.36943376 0.0
490 1 -5.26488904 2.29623256 0.0
491 1 -42.58785984 -43.34525592 0.0
492 1 -38.5374424 26.87501344 0.0
493 1 -37.44225864 -35.62329416 0.0
494 1 -46.3425088 -11.93963896 0.0
495 1 56.28985408 -4.99421536 0.0
496 1 -47.119758952 5.4338996 0.0
497 1 13.39385344 37.59796312 0.0
498 1 -24.79272864 4.75015384 0.0
499 1 57.08098224 13.59799672 0.0
500 1 -42.99392872 13.12002832 0.0
501 1 -31.22633504 -11.619476 0.0
502 1 -53.84363632 -9.65367776 0.0
503 1 -1.75395144 5.17933328 0.0
504 1 -55.448384584 -56.344899232 0.0
505 1 -24.50443024 -35.50237224 0.0
506 1 20.96921488 -6.80781072 0.0
507 1 0.13212704 21.8248892 0.0
508 1 -31.97626104 -34.06274776 0.0
509 1 -7.00600128 50.27515576 0.0
510 1 51.94763664 1.71216568 0.0
511 1 -40.56615272 -27.0154276 0.0
512 1 37.98955872 -15.36548768 0.0
513 1 -56.848686096 29.59015408 0.0
514 1 4.14636128 -32.8485096 0.0
515 1 -41.3824924 21.1257364 0.0
516 1 2.49909192 -9.1952016 0.0
517 1 -46.764650024 -22.53478024 0.0
518 1 15.72486856 15.10403488 0.0
519 1 8.07095456 17.18772032 0.0
520 1 22.2316584 -8.74069392 0.0
521 1 -34.61553368 21.35123944 0.0
522 1 48.87871768 -35.20531984 0.0
523 1 41.55033576 -25.22015728 0.0
524 1 -24.63865824 1.34624848 0.0
525 1 40.27271864 9.03692928 0.0
526 1 -15.34739608 39.44353976 0.0
527 1 -53.296838136 -23.29124256 0.0
528 1 37.9608456 7.0825696 0.0
529 1 -33.87809672 14.75072344 0.0
530 1 -45.42730728 12.22677016 0.0
531 1 -3.99672624 -12.67007272 0.0
532 1 0.7756044 -16.10280792 0.0
533 1 33.78915608 -22.56069208 0.0
534 1 -13.61760568 -10.70625872 0.0
535 1 -57.488375892 -38.00881752 0.0
536 1 -34.28988488 -47.763528112 0.0
537 1 26.02587544 -35.0813632 0.0
538 1 -53.209823376 -0.93095872 0.0
539 1 -27.70979488 28.60550416 0.0
540 1 -51.7437268 1.97128408 0.0
541 1 42.61750672 23.82208512 0.0
542 1 -46.785893064 34.08492456 0.0
543 1 48.3039884 50.83482816 0.0
544 1 24.28114488 -26.13232408 0.0
545 1 -30.8730236 6.08939912 0.0
546 1 6.04948088 -54.461178496 0.0
547 1 -18.32293904 -15.77902664 0.0
548 1 40.72512536 11.19554896 0.0
549 1 52.879996 10.0361692 0.0
550 1 -26.41618712 -25.6305448 0.0
551 1 51.31933288 12.23902576 0.0
552 1 -32.99055784 32.79225056 0.0
553 1 38.52425304 20.45319576 0.0
554 1 56.09376448 49.17448616 0.0
555 1 -15.82874936 58.13811528 0.0
556 1 -21.1274872 -34.35606512 0.0
557 1 -47.537534848 9.43015896 0.0
558 1 -12.18159952 -11.46727312 0.0
559 1 -46.62648856 -41.07073328 0.0
560 1 -49.863449304 -20.70321 0.0
561 1 34.50640048 -47.652469032 0.0
562 1 -55.211863176 24.178548 0.0
563 1 31.537744 -21.59833568 0.0
564 1 -41.66156992 31.3941784 0.0
565 1 56.47357136 19.10834792 0.0
566 1 -22.20633016 -14.18346424 0.0
567 1 -34.06613264 4.79053896 0.0
568 1 -16.15965056 -37.43583904 0.0
569 1 30.68522112 -30.2637452 0.0
570 1 -24.01303904 17.017776 0.0
571 1 39.702308 20.93361528 0.0
572 1 -43.9456636 -29.84028504 0.0
573 1 25.35426856 15.67246128 0.0
574 1 -32.80462288 -16.90607496 0.0
575 1 23.42698792 19.63066992 0.0
576 1 -37.7110648 7.04066712 0.0
577 1 46.0186108 37.9550096 0.0
578 1 -30.48808104 7.9276224 0.0
579 1 34.30914368 -32.52356112 0.0
580 1 -30.07080704 28.23165 0.0
581 1 35.26963256 49.41177792 0.0
582 1 -17.07741992 53.76788504 0.0
583 1 1.92494624 28.4020612 0.0
584 1 -30.34218104 -26.87384624 0.0
585 1 56.7591852 -22.5263764 0.0
586 1 12.72271344 18.20330104 0.0
587 1 49.18475752 15.15690904 0.0
588 1 -20.70064216 -5.74460824 0.0
589 1 -28.17667488 -41.38412648 0.0
590 1 33.50074096 12.42507744 0.0
591 1 -26.88365072 -20.80965864 0.0
592 1 -37.06408584 3.5873892 0.0
593 1 -22.21438384 10.83196616 0.0
594 1 -12.2707736 -51.594710376 0.0
595 1 -46.752196 -48.647822176 0.0
596 1 34.64704808 -12.51681936 0.0
597 1 -6.75890504 3.72021656 0.0
598 1 -44.2724796 24.17703064 0.0
599 1 -15.3825288 -50.105830056 0.0
600 1 50.85280304 50.7510232 0.0
601 1 10.07713792 16.54494328 0.0
602 1 3.12774584 -19.75205872 0.0
603 1 -56.026603792 40.40169424 0.0
604 1 -29.49491056 43.30638816 0.0
605 1 -8.9325816 31.20462512 0.0
606 1 -55.422145928 -34.86974984 0.0
607 1 22.4995308 36.189036 0.0
608 1 -20.40113864 31.15420208 0.0
609 1 -21.01240128 -10.67182632 0.0
610 1 35.86723896 51.68980216 0.0
611 1 -46.83775176 -57.155776416 0.0
612 1 2.08777064 36.3547784 0.0
613 1 -53.586992384 45.08566784 0.0
614 1 2.64067328 23.02990648 0.0
615 1 39.55512408 -53.77617216 0.0
616 1 -49.804038824 47.53141872 0.0
617 1 54.71926976 47.4472636 0.0
618 1 54.23301424 54.11442672 0.0
619 1 21.30653568 -11.73036 0.0
620 1 12.44445296 -45.57110632 0.0
621 1 -56.762558408 -20.88926168 0.0
622 1 35.78856968 -4.5129788 0.0
623 1 -24.85038832 7.28869712 0.0
624 1 -55.597050848 5.81288944 0.0
625 1 -38.38909128 -31.283878 0.0
626 1 -43.30218624 7.45303888 0.0
627 1 4.58371112 8.51332336 0.0
628 1 56.05699768 -6.33159312 0.0
629 1 -34.87803696 -1.855848 0.0
630 1 -53.625638376 15.0136936 0.0
631 1 50.64002248 14.68010784 0.0
632 1 -4.65222576 -25.19261136 0.0
633 1 -44.97081536 22.96676096 0.0
634 1 2.99771976 33.9211664 0.0
635 1 -43.1490496 24.69199928 0.0
636 1 37.49303184 29.11918888 0.0
637 1 -21.12036728 22.84011976 0.0
638 1 -10.42239568 -5.11315304 0.0
639 1 40.6810052 30.65604112 0.0
640 1 -47.177535352 -23.6684816 0.0
641 1 -44.4183796 -3.73527344 0.0
642 1 57.06744272 31.73219952 0.0
643 1 -31.33535152 37.1426384 0.0
644 1 -13.37891328 25.37877976 0.0
645 1 2.89547304 42.49144912 0.0
646 1 -7.58750032 -0.02824624 0.0
647 1 46.21621776 51.4612644 0.0
648 1 -48.452969808 6.1056232 0.0
649 1 28.56056696 42.61365496 0.0
650 1 -45.41621888 8.31875112 0.0
651 1 -34.3927152 -18.80627656 0.0
652 1 -55.303359984 -32.54585464 0.0
653 1 51.1968936 -9.3837044 0.0
654 1 -57.6947473568 5.40331896 0.0
655 1 -36.57934768 -17.71879632 0.0
656 1 -10.0869424 4.37513248 0.0
657 1 31.10973176 -27.16331184 0.0
658 1 48.61294624 13.06225192 0.0
659 1 -49.406723944 51.13689952 0.0
660 1 51.31898272 9.58749752 0.0
661 1 40.1324212 56.18107104 0.0
662 1 48.9132668 26.33459984 0.0
663 1 11.13660536 33.82930776 0.0
664 1 -29.1560724 -37.39417 0.0
665 1 40.20350368 -52.794405224 0.0
666 1 24.22208456 46.99509032 0.0
667 1 -57.840689376 6.55989744 0.0
668 1 20.02191536 5.32546672 0.0
669 1 49.74944888 50.83377768 0.0
670 1 47.53737144 13.33304232 0.0
671 1 57.55334808 26.11855112 0.0
672 1 48.54886696 48.8835032 0.0
673 1 -45.3929916 42.7469492 0.0
674 1 -49.765427848 25.38041384 0.0
675 1 -54.894104648 16.3192068 0.0
676 1 -6.562582 -48.645090928 0.0
677 1 -52.487851816 0.93831208 0.0
678 1 39.16644648 34.7236164 0.0
679 1 57.72947856 36.938962 0.0
680 1 24.843852 42.553194 0.0
681 1 -46.86961632 -38.86647608 0.0
682 1 -36.0378836 -57.91856496 0.0
683 1 -33.0235896 38.4283092 0.0
684 1 1.65438928 5.17396416 0.0
685 1 -7.38732552 -32.64179848 0.0
686 1 -52.02099516 -14.74126912 0.0
687 1 4.9734392 -54.104237064 0.0
688 1 -28.09648824 -45.70475072 0.0
689 1 13.29359096 -51.223879264 0.0
690 1 -47.760680144 -41.3591484 0.0
691 1 43.758328 28.60293632 0.0
692 1 33.21127536 2.57169176 0.0
693 1 39.52115856 36.09297544 0.0
694 1 20.20936768 32.47932424 0.0
695 1 5.7992332 24.55403624 0.0
696 1 -44.63536208 -55.116316184 0.0
697 1 -58.1224958096 -57.9769646448 0.0
698 1 44.88654352 9.12878792 0.0
699 1 38.16849048 8.1657312 0.0
700 1 2.93223984 40.45608576 0.0
701 1 -21.51989984 41.6118472 0.0
702 1 -4.82917328 13.82758496 0.0
703 1 58.00318696 52.1785088 0.0
704 1 24.16080656 -4.45193424 0.0
705 1 55.6030736 22.1540396 0.0
706 1 25.58012176 47.25922768 0.0
707 1 -18.08774824 46.31893136 0.0
708 1 -25.82231576 37.63893184 0.0
709 1 -50.083011296 28.5397908 0.0
710 1 -2.93095592 55.3276144 0.0
711 1 47.73416136 49.61895592 0.0
712 1 38.4423156 29.90821608 0.0
713 1 -21.7636112 14.47538096 0.0
714 1 30.51445976 -2.9711076 0.0
715 1 35.72694152 -54.065077504 0.0
716 1 54.06342008 -18.55602888 0.0
717 1 -36.95098416 9.1525988 0.0
718 1 47.437926 -8.36870728 0.0
719 1 -30.97211888 11.01148152 0.0
720 1 48.54104672 -41.41248944 0.0
721 1 54.6109536 56.73047208 0.0
722 1 38.09005464 25.12724816 0.0
723 1 24.04502032 36.78010608 0.0
724 1 46.07265216 -25.59809664 0.0
725 1 28.4108152 0.9681924 0.0
726 1 -19.095392 -19.15095072 0.0
727 1 4.43641048 15.0738044 0.0
728 1 45.84096296 -6.55137688 0.0
729 1 57.43464384 -24.75316056 0.0
730 1 -51.503411992 -52.604490112 0.0
731 1 1.83810656 -33.22353096 0.0
732 1 18.49264992 38.10196008 0.0
733 1 -34.08469112 29.61454856 0.0
734 1 4.58347768 -35.12758432 0.0
735 1 53.24894792 22.1336136 0.0
736 1 17.85209056 34.5689624 0.0
737 1 42.56965152 -16.8450304 0.0
738 1 46.20431232 -8.90246784 0.0
739 1 -48.003702856 29.04997392 0.0
740 1 0.52885832 -41.4262624 0.0
741 1 31.62925248 34.98880424 0.0
742 1 42.71788592 42.1090744 0.0
743 1 26.78992456 50.55505032 0.0
744 1 49.96409696 7.39082712 0.0
745 1 -30.93733632 -31.34433896 0.0
746 1 -55.030515312 -4.36427752 0.0
747 1 -41.65071496 51.44340624 0.0
748 1 -19.90111016 -30.59978208 0.0
749 1 5.22625472 52.81031416 0.0
750 1 -51.160617024 33.28119064 0.0
751 1 41.75903112 30.08037808 0.0
752 1 48.61026168 -22.10781848 0.0
753 1 57.5248684 -52.7562728 0.0
754 1 47.96293256 -27.6673088 0.0
755 1 -22.42634736 -24.3250316 0.0
756 1 -29.89047464 -49.683980632 0.0
757 1 -9.1368416 36.59977368 0.0
758 1 28.12356728 32.76318728 0.0
759 1 -38.26980344 -40.15144656 0.0
760 1 27.32380184 39.8079396 0.0
761 1 34.51503776 -40.4738272 0.0
762 1 -37.87167152 36.48293696 0.0
763 1 -58.1419425288 -29.66952368 0.0
764 1 42.8840952 -10.67836264 0.0
765 1 -43.38820888 12.01539024 0.0
766 1 9.32044216 11.31472008 0.0
767 1 -42.03040512 30.36435784 0.0
768 1 -58.15445608 -49.37390228 0.0
769 1 49.56549816 -53.176254704 0.0
770 1 8.37325936 28.88376464 0.0
771 1 -7.4338968 16.67333528 0.0
772 1 45.39439224 54.66837984 0.0
773 1 -27.36698824 -33.46280696 0.0
774 1 -32.70039192 15.15714248 0.0
775 1 -44.31753352 -41.78074104 0.0
776 1 -33.1152148 -10.137132 0.0
777 1 20.07770752 -50.83552848 0.0
778 1 3.41417672 -31.26041728 0.0
779 1 55.0469028 -54.780419368 0.0
780 1 -8.4020892 8.6909712 0.0
781 1 -4.87025872 33.43666168 0.0
782 1 -8.60564888 2.90551096 0.0
783 1 -47.792544704 30.9885764 0.0
784 1 22.14131712 56.32405304 0.0
785 1 57.60843992 30.05575016 0.0
786 1 54.22472712 33.89443752 0.0
787 1 54.82735248 38.93907592 0.0
788 1 -43.95581824 6.43605752 0.0
789 1 35.4537 56.75369936 0.0
790 1 9.24212304 -0.4400344 0.0
791 1 -13.20826864 -26.14376264 0.0
792 1 -13.01988256 16.67963816 0.0
793 1 52.4096144 38.75139016 0.0
794 1 37.69449056 26.88750248 0.0
795 1 49.792752 3.1041684 0.0
796 1 24.0256448 53.70077104 0.0
797 1 56.41696216 -50.84153956 0.0
798 1 -48.302167568 57.74208432 0.0
799 1 -50.7340988 -46.3973672 0.0
800 1 21.23206832 -2.45905696 0.0
801 1 -35.2500236 8.10130176 0.0
802 1 22.61776816 40.31380408 0.0
803 1 -38.377536 -44.84989344 0.0
804 1 -47.05310016 19.51546728 0.0
805 1 29.54638408 -2.38237192 0.0
806 1 49.7122152 30.18974472 0.0
807 1 41.87131576 17.4134568 0.0
808 1 -29.5149864 32.2123856 0.0
809 1 -32.02890176 49.27941744 0.0
810 1 57.40978248 -38.87849824 0.0
811 1 -28.38268568 -32.73248992 0.0
812 1 -38.76492968 32.81127592 0.0
813 1 42.5012536 43.4822852 0.0
814 1 44.0903964 47.53585408 0.0
815 1 -20.80744096 12.92277152 0.0
816 1 12.25548328 50.7872064 0.0
817 1 -40.83320808 -8.6186048 0.0
818 1 20.79343456 -53.02461208 0.0
819 1 -44.81079224 -50.1329908 0.0
820 1 -58.1938595848 -42.52202976 0.0
821 1 -44.38137936 -36.83379728 0.0
822 1 55.34757352 21.03772952 0.0
823 1 -13.80377408 -47.539600792 0.0
824 1 -14.03079448 -13.1940288 0.0
825 1 -19.3206616 30.02131776 0.0
826 1 18.41561472 31.99551984 0.0
827 1 -24.21379744 -4.55172984 0.0
828 1 -52.715140672 34.33458864 0.0
829 1 55.72294504 35.90237168 0.0
830 1 -4.5847616 -30.39715616 0.0
831 1 47.6661136 -14.54401232 0.0
832 1 -46.22018624 13.56788296 0.0
833 1 43.31257432 -34.65440144 0.0
834 1 40.72675944 12.3740708 0.0
835 1 -15.266976 15.9340308 0.0
836 1 17.34015664 -44.59451008 0.0
837 1 -53.686274416 40.03706096 0.0
838 1 43.91683376 30.5928956 0.0
839 1 -27.60217904 -25.17113488 0.0
840 1 -55.655679304 45.63740328 0.0
841 1 -47.976320344 -50.035949792 0.0
842 1 -48.018794752 -54.43867488 0.0
843 1 -21.65109312 33.1292212 0.0
844 1 36.75816272 -28.91411184 0.0
845 1 -35.29472736 34.87955432 0.0
846 1 -15.37704296 18.43849184 0.0
847 1 57.8849496 21.5079944 0.0
848 1 23.78076624 3.54607032 0.0
849 1 45.3941588 -19.06282712 0.0
850 1 35.87610968 -9.562286 0.0
851 1 54.39513832 -36.63980864 0.0
852 1 21.87111032 46.27411088 0.0
853 1 30.08714784 36.8181568 0.0
854 1 28.76716136 48.44300192 0.0
855 1 -7.59520384 -20.68675248 0.0
856 1 3.39433432 -43.02859456 0.0
857 1 25.44647736 31.09922696 0.0
858 1 -15.05688 29.12490816 0.0
859 1 2.0472688 25.67629904 0.0
860 1 -11.97885688 10.814108 0.0
861 1 34.5975588 13.38159784 0.0
862 1 32.83065144 -1.94899056 0.0
863 1 43.69903424 -6.00337648 0.0
864 1 -14.94587928 -34.05399376 0.0
865 1 -46.73953188 46.2450476 0.0
866 1 -4.65981256 -43.4595248 0.0
867 1 -12.9337432 50.20979256 0.0
868 1 -51.318025616 45.55709992 0.0
869 1 -52.424566232 26.22511648 0.0
870 1 23.03947752 28.61997744 0.0
871 1 39.85357712 52.69721248 0.0