ITEM: TIMESTEP
0
ITEM: NUMBER OF ATOMS
9250
ITEM: BOX BOUNDS pp pp pp
-5.8359999999999999e+01 5.8359999999999999e+01
-5.8359999999999999e+01 5.8359999999999999e+01
-5.0000000000000000e-01 5.0000000000000000e-01
ITEM: ATOMS id type xs ys zs c_002[1] c_002[2]
1 1 0.277476 0.825148 0.5 0.184485 0.0446852
2 1 0.400822 0.921649 0.5 0.407325 -0.641109
3 1 0.1184 0.508603 0.5 -0.204619 0.328817
4 1 0.0994264 0.0745853 0.5 0.75289 0.07642
5 1 0.322091 0.756226 0.5 -0.463104 0.182008
6 1 0.0226406 0.528488 0.5 -0.929625 -0.172877
7 1 0.145625 0.958599 0.5 0.365954 -0.408349
8 1 0.0510032 0.741954 0.5 0.161924 0.958107
9 1 0.455754 0.94329 0.5 -0.347321 -0.495626
10 1 0.978427 0.794851 0.5 0.328768 -0.0582363
11 1 0.942398 0.793186 0.5 0.390948 -0.484124
12 1 0.929728 0.819564 0.5 -0.628632 0.531874
13 1 0.0824755 0.974725 0.5 0.164635 -0.84301
14 1 0.0434969 0.917886 0.5 -0.587134 -0.611021
15 1 0.893098 0.923836 0.5 0.649644 -0.0273994
16 1 0.115645 0.268288 0.5 -0.315596 -0.478586
17 1 0.0693003 0.898695 0.5 -0.702436 0.146809
18 1 0.271214 0.0117251 0.5 0.841718 -0.118882
19 1 0.866822 0.0641154 0.5 0.406974 0.483135
20 1 0.191423 0.824893 0.5 -0.76686 0.139813
21 1 0.113045 0.967133 0.5 0.15854 -0.582449
22 1 0.419463 0.899779 0.5 0.22632 0.164503
23 1 0.449337 0.710668 0.5 0.732452 0.0984053
24 1 0.224574 0.944701 0.5 -0.269176 0.234462
25 1 0.180545 0.889208 0.5 0.804413 -0.302749
26 1 0.232633 0.844286 0.5 -0.103533 0.0515245
27 1 0.241507 0.956597 0.5 -0.736323 0.0443063
28 1 0.0944563 0.103813 0.5 -0.00660972 0.574817
29 1 0.312348 0.0404738 0.5 -0.237631 -0.0802383
30 1 0.846309 0.0966375 0.5 0.181774 0.47292
31 1 0.982717 0.759526 0.5 -0.389357 0.614078
32 1 0.39552 0.977403 0.5 0.474307 -0.217763
33 1 0.163697 0.810591 0.5 -0.238651 -0.333229
34 1 0.0961726 0.95011 0.5 -0.535613 0.28517
35 1 0.216589 0.979832 0.5 0.77968 0.281587
36 1 0.205589 0.0853244 0.5 0.394538 -0.153133
37 1 0.0853047 0.837895 0.5 -0.0953086 0.230727
38 1 0.300529 0.926982 0.5 0.705893 0.614141
39 1 0.0135938 0.164134 0.5 0.160316 -0.59717
40 1 0.868468 0.855405 0.5 0.760121 -0.537913
41 1 0.389761 0.922331 0.5 0.636877 -0.64197
42 1 0.906668 0.0158245 0.5 -0.760715 -0.0288211
43 1 0.183126 0.061783 0.5 0.396883 -0.343443
44 1 0.905967 0.938832 0.5 0.539105 -0.158582
45 1 0.971584 0.786476 0.5 0.501248 0.188759
46 1 0.427794 0.876341 0.5 0.337896 0.754522
47 1 0.0979454 0.166591 0.5 -0.305434 -0.359573
48 1 0.317004 0.0819357 0.5 0.751261 -0.135512
49 1 0.904743 0.00539828 0.5 -0.64903 -0.0827333
50 1 0.740942 0.00829779 0.5 -0.0190897 0.0520721
51 1 0.357919 0.0730597 0.5 -0.252908 0.692865
52 1 0.325196 0.943978 0.5 0.0232346 0.742513
53 1 0.210112 0.837713 0.5 -0.216815 -0.644103
54 1 0.185212 0.786009 0.5 -0.262299 -0.550108
55 1 0.323722 0.058325 0.5 -0.416894 0.396286
56 1 0.0791236 0.986156 0.5 0.273639 -0.658048
57 1 0.894762 0.836332 0.5 -0.117414 0.386072
58 1 0.830712 0.99222 0.5 0.189637 0.27634
59 1 0.405714 0.796396 0.5 -0.249255 -0.796665
60 1 0.392078 0.772102 0.5 0.419578 -0.655055
61 1 0.317977 0.951902 0.5 -0.182508 0.958782
62 1 0.0636492 0.949994 0.5 -0.512222 0.0678402
63 1 0.0983091 0.225519 0.5 0.202375 -0.1073
64 1 0.859658 0.813308 0.5 -0.0680961 -0.195574
65 1 0.300573 0.887957 0.5 0.4084 0.250357
66 1 0.922063 0.825666 0.5 -0.452467 0.774941
67 1 0.982397 0.00500377 0.5 -0.0740086 0.228916
68 1 0.20651 0.128525 0.5 -0.495252 0.0233847
69 1 0.428671 0.0116782 0.5 0.646518 0.077986
70 1 0.331715 0.0884644 0.5 -0.043286 0.201774
71 1 0.0946902 0.902844 0.5 0.362628 0.043842
72 1 0.215576 0.0558191 0.5 -0.697473 -0.663225
73 1 0.946712 0.963927 0.5 0.194811 0.445333
74 1 0.19339 0.947513 0.5 0.0196593 -0.000302126
75 1 0.0250466 0.950641 0.5 -0.857651 0.268335
76 1 0.406328 0.203889 0.5 -0.382124 -0.805837
77 1 0.366048 0.885635 0.5 -0.54764 -0.579188
78 1 0.856023 0.913363 0.5 -0.0571628 0.559097
79 1 0.968373 0.888024 0.5 -0.12795 0.26527
80 1 0.220537 0.923236 0.5 -0.114706 -0.418619
81 1 0.997636 0.280568 0.5 0.301825 0.348822
82 1 0.998898 0.151619 0.5 0 0
83 1 0.0671257 0.106643 0.5 0.258481 0.909295
84 1 0.222675 0.776981 0.5 0.119355 0.840326
85 1 0.176293 0.790558 0.5 -0.40961 0.420594
86 1 0.182534 0.911126 0.5 0.455877 -0.595695
87 1 0.146528 0.978979 0.5 0.710514 -0.424795
88 1 0.934235 0.787723 0.5 -0.190685 0.104678
89 1 0.244445 0.127359 0.5 0.352864 0.644707
90 1 0.0914334 0.00120402 0.5 0.535809 -0.620501
91 1 0.204185 0.774067 0.5 0.65954 0.214309
92 1 0.986131 0.0515241 0.5 -0.650659 -0.139049
93 1 0.419012 0.114219 0.5 0.452422 -0.570982
94 1 0.860781 0.997531 0.5 0.371274 -0.317229
95 1 0.368156 0.0460783 0.5 -0.0935335 0.770481
96 1 0.23167 0.962823 0.5 -0.556407 -0.0720115
97 1 0.784095 0.0588956 0.5 -0.0205108 0.800708
98 1 0.0541339 0.855661 0.5 0.599209 -0.200001
99 1 0.299809 0.985351 0.5 0.313898 -0.425804
100 1 0.201976 0.362431 0.5 0.701802 -0.426499
101 1 0.0424587 0.948652 0.5 -0.776727 0.474454
102 1 0.167777 0.84335 0.5 -0.223417 -0.670967
103 1 0.343069 0.929958 0.5 0.158836 -0.148276
104 1 0.849951 0.891488 0.5 0.285867 -0.212461
105 1 0.956825 0.654274 0.5 -0.204989 -0.572663
106 1 0.8229 0.0615089 0.5 0.576598 -0.394017
107 1 0.748626 0.99036 0.5 -0.100065 -0.370167
108 1 0.404083 0.123409 0.5 -0.304122 0.136784
109 1 0.202703 0.946033 0.5 -0.0808947 -0.537638
110 1 0.934556 0.99668 0.5 -0.471661 -0.0270243
111 1 0.229947 0.738565 0.5 0.182221 -0.0722544
112 1 0.0782897 0.0137767 0.5 0.226737 -0.123538
113 1 0.200984 0.842079 0.5 -0.77232 0.015974
114 1 0.950443 0.819307 0.5 -0.636012 -0.46165
115 1 0.123167 0.0287801 0.5 0.501384 0.612852
116 1 0.0801488 0.863563 0.5 0.0574838 0.367499
117 1 0.883873 0.891326 0.5 0.141926 0.188105
118 1 0.300876 0.780648 0.5 0.512558 0.201708
119 1 0.0829239 0.936363 0.5 -0.585507 0.547388
120 1 0.0933829 0.0202705 0.5 0.56233 -0.629246
121 1 0.731999 0.879819 0.5 -0.134809 -0.213858
122 1 0.209963 0.90663 0.5 -0.69646 -0.0188679
123 1 0.529112 0.921257 0.5 -0.511997 0.0493339
124 1 0.00472135 0.952758 0.5 -0.0858438 0.0535968
125 1 0.948499 0.603773 0.5 -0.334883 0.00549476
126 1 0.0179031 0.83465 0.5 0.521667 0.0365596
127 1 0.19384 0.848782 0.5 -0.430549 0.109242
128 1 0.151551 0.837166 0.5 0.450962 -0.815431
129 1 0.549413 0.822766 0.5 0.0750974 0.613152
130 1 0.00203497 0.911538 0.5 0 0
131 1 0.107756 0.163525 0.5 -0.387909 -0.378841
132 1 0.261649 0.0744475 0.5 -0.790174 0.315948
133 1 0.247458 0.807439 0.5 -0.0307582 0.0473749
134 1 0.065282 0.726546 0.5 0.243531 0.396031
135 1 0.873728 0.121467 0.5 0.809232 0.248192
136 1 0.0710679 0.772382 0.5 -0.562108 -0.280289
137 1 0.123873 0.108528 0.5 0.63839 -0.122582
138 1 0.369331 0.1365 0.5 -0.210594 -0.0988214
139 1 0.564419 0.324626 0.5 0.0801546 -0.42259
140 1 0.242124 0.990013 0.5 0.649506 0.388488
141 1 0.994502 0.953286 0.5 0.0302063 0.222269
142 1 0.181334 0.820822 0.5 -0.661003 0.308384
143 1 0.241811 0.9466 0.5 -0.611444 -0.498489
144 1 0.226911 0.758597 0.5 0.342235 0.796107
145 1 0.00877143 0.685238 0.5 -0.939226 0.118963
146 1 0.0686291 0.842004 0.5 0.401637 0.0248098
147 1 0.933681 0.908772 0.5 0.547797 -0.425747
148 1 0.16941 0.873631 0.5 0.831548 -0.0704165
149 1 0.463249 0.209687 0.5 -0.576879 0.386736
150 1 0.325869 0.00594351 0.5 -0.578581 0.301186
151 1 0.226389 0.891879 0.5 0.56711 -0.184152
152 1 0.800364 0.836187 0.5 0.200005 -0.354426
153 1 0.133141 0.00426575 0.5 -0.433291 0.233139
154 1 0.371524 0.697329 0.5 0.266802 -0.671986
155 1 0.290626 0.214262 0.5 -0.672526 -0.117672
156 1 0.169342 0.949565 0.5 0.770025 -0.443142
157 1 0.102997 0.127076 0.5 0.398606 -0.395691
158 1 0.783692 0.0495118 0.5 -0.023336 0.195714
159 1 0.764731 0.835762 0.5 0.252218 -0.798078
160 1 0.129726 0.99028 0.5 0.714371 0.0470992
161 1 0.623339 0.0564991 0.5 -0.665392 -0.205293
162 1 0.105926 0.959914 0.5 0.434014 -0.588884
163 1 0.954266 0.935726 0.5 0.0762115 0.794932
164 1 0.905588 0.995581 0.5 0.0846354 0.118336
165 1 0.853047 0.0888769 0.5 -0.27916 0.553256
166 1 0.244111 0.083971 0.5 -0.473163 0.707978
167 1 0.423397 0.915416 0.5 0.4148 -0.264451
168 1 0.24845 0.981154 0.5 0.618977 -0.190137
169 1 0.492027 0.99861 0.5 -0.305059 -0.628177
170 1 0.353381 0.933983 0.5 -0.125558 -0.253059
171 1 0.132068 0.020069 0.5 -0.112175 0.518026
172 1 0.0320834 0.0669693 0.5 -0.861701 0.205783
173 1 0.251577 0.0583485 0.5 -0.0127775 0.18935
174 1 0.288075 0.853755 0.5 0.223281 -0.136811
175 1 0.885491 0.958739 0.5 0.656093 -0.228682
176 1 0.16531 0.157269 0.5 -0.180863 -0.287213
177 1 0.00629404 0.962866 0.5 -0.0876893 0.374268
178 1 0.135412 0.84648 0.5 -0.234728 0.540952
179 1 0.0950676 0.0658811 0.5 -0.0519091 0.481677
180 1 0.886196 0.981198 0.5 0.0209819 0.00814937
181 1 0.0339509 0.967739 0.5 -0.577739 0.260817
182 1 0.880561 0.853276 0.5 0.388776 -0.702943
183 1 0.963022 0.938992 0.5 0.183071 0.167099
184 1 0.0321247 0.554099 0.5 -0.831205 0.0824562
185 1 0.198078 0.984748 0.5 -0.137902 0.714611
186 1 0.134633 0.0876957 0.5 0.67833 -0.622805
187 1 0.0623394 0.833427 0.5 0.699624 -0.36113
188 1 0.237086 0.863501 0.5 -0.200567 0.851071
189 1 0.0361006 0.879364 0.5 0 0
190 1 0.221729 0.0191938 0.5 0.402482 -0.0789593
191 1 0.929803 0.0313892 0.5 0.54594 -0.387744
192 1 0.892734 0.826983 0.5 -0.166365 0.428518
193 1 0.993836 0.848073 0.5 0.198204 0.463352
194 1 0.853707 0.963887 0.5 0.221049 -0.715517
195 1 0.984653 0.177954 0.5 -0.32402 0.329652
196 1 0.480038 0.221977 0.5 -0.127658 -0.904597
197 1 0.889438 0.932488 0.5 0.789817 -0.404235
198 1 0.194378 0.97535 0.5 0.633794 0.303435
199 1 0.90233 0.828483 0.5 0.0965834 0.886042
200 1 0.0946586 0.99013 0.5 0.478487 -0.32711
201 1 0.900811 0.967255 0.5 0.838206 0.0304915
202 1 0.2651 0.938132 0.5 0.179346 -0.150108
203 1 0.103894 0.932556 0.5 -0.614173 -0.172132
204 1 0.185527 0.746305 0.5 -0.0451063 -0.571999
205 1 0.132642 0.835354 0.5 -0.253753 0.462777
206 1 0.204137 0.104224 0.5 -0.0963421 0.691722
207 1 0.887214 0.000859463 0.5 0.197947 -0.719782
208 1 0.916311 0.68438 0.5 0.754994 0.0479853
209 1 0.364754 0.00498356 0.5 0.0598747 0.287403
210 1 0.149784 0.0953372 0.5 0.465224 -0.696271
211 1 0.281021 0.924259 0.5 0.362084 0.139267
212 1 0.872228 0.873716 0.5 0.36408 -0.811384
213 1 0.983884 0.0614811 0.5 -0.683221 -0.420154
214 1 0.419194 0.0115581 0.5 0.51344 0.263965
215 1 0.00955612 0.118094 0.5 0.479592 0.668913
216 1 0.833695 0.00270142 0.5 0.594561 0.550118
217 1 0.389573 0.0514544 0.5 0.183191 0.52453
218 1 0.240608 0.96917 0.5 0.108863 -0.245578
219 1 0.944227 0.932769 0.5 0.175476 0.574863
220 1 0.0696266 0.88646 0.5 -0.035488 0.248461
221 1 0.812955 0.97316 0.5 -0.0260304 0.21908
222 1 0.191754 0.140393 0.5 -0.159627 -0.391916
223 1 0.422977 0.0205605 0.5 0.288054 0.413174
224 1 0.994848 0.8844 0.5 0.266438 -0.737154
225 1 0.283578 0.993292 0.5 0.70487 0.297929
226 1 0.196163 0.215741 0.5 -0.228564 0.172985
227 1 0.137005 0.0575267 0.5 0.115272 0.245658
228 1 0.0188045 0.68048 0.5 -0.938293 -0.168949
229 1 0.0519987 0.891136 0.5 -0.302708 0.194845
230 1 0.841544 0.940736 0.5 -0.200746 0.310048
231 1 0.433533 0.914126 0.5 0.422459 0.12704
232 1 0.437664 0.952944 0.5 0.233427 0.751333
233 1 0.939637 0.94315 0.5 0.762235 0.430112
234 1 0.694446 0.882973 0.5 -0.0672702 -0.00606589
235 1 0.915618 0.996836 0.5 0.398835 -0.0856566
236 1 0.995179 0.992651 0.5 0.608861 -0.27961
237 1 0.964057 0.0188112 0.5 -0.318776 -0.0563791
238 1 0.767447 0.63479 0.5 0.233924 0.157455
239 1 0.434475 0.943025 0.5 -0.119574 0.534602
240 1 0.0927139 0.0450087 0.5 -0.0991409 0.464395
241 1 0.15395 0.989488 0.5 0.0263241 -0.557906
242 1 0.91496 0.786363 0.5 0 0
243 1 0.318984 0.0208201 0.5 -0.698065 -0.121263
244 1 0.116839 0.169964 0.5 -0.337148 0.417552
245 1 0.0736377 0.436316 0.5 0.246653 -0.158613
246 1 0.98361 0.899817 0.5 -0.687169 0.20242
247 1 0.979385 0.736857 0.5 -0.243325 0.0374197
248 1 0.99906 0.930542 0.5 0.65844 -0.217118
249 1 0.99192 0.98387 0.5 0.0671712 -0.00779596
250 1 0.85118 0.136695 0.5 0.0856174 0.550156
251 1 0.125608 0.785901 0.5 0.416303 -0.792894
252 1 0.6934 0.991588 0.5 0.381125 -0.0735356
253 1 0.182092 0.14525 0.5 -0.528825 -0.3602
254 1 0.0935031 0.929925 0.5 -0.69131 0.322596
255 1 0.318377 0.83175 0.5 -0.234345 -0.228867
256 1 0.213831 0.0244435 0.5 -0.327276 0.191759
257 1 0.0523008 0.142307 0.5 0.168224 0.293015
258 1 0.207242 0.0153555 0.5 0.230099 0.317937
259 1 0.81178 0.834892 0.5 0.750015 -0.211781
260 1 0.0450029 0.686645 0.5 -0.354198 0.549616
261 1 0.197102 0.256954 0.5 -0.351214 -0.516154
262 1 0.390166 0.984972 0.5 -0.135303 0.625081
263 1 0.0544525 0.751458 0.5 -0.262193 0.322966
264 1 0.227329 0.978895 0.5 0.482788 0.378736
265 1 0.929013 0.941565 0.5 0.761664 0.217354
266 1 0.933271 0.985853 0.5 0.236934 0.0233743
267 1 0.0830367 0.926314 0.5 -0.549026 0.492047
268 1 0.276648 0.94168 0.5 0.326338 0.711933
269 1 0.0713192 0.909219 0.5 -0.335931 0.180564
270 1 0.395534 0.00622496 0.5 -0.190899 0.875467
271 1 0.215807 0.0887621 0.5 0.658965 0.0899738
272 1 0.857587 0.897468 0.5 -0.490599 -0.479043
273 1 0.136527 0.783401 0.5 0.18378 -0.393754
274 1 0.13593 0.980723 0.5 0.602888 -0.594095
275 1 0.299581 0.957091 0.5 0.189441 -0.0113906
276 1 0.19358 0.0220265 0.5 -0.0598509 -0.541291
277 1 0.967017 0.985898 0.5 -0.315337 0.498215
278 1 0.0218657 0.0809256 0.5 -0.448718 0.0680659
279 1 0.209218 0.162576 0.5 -0.148513 0.117139
280 1 0.054666 0.784014 0.5 -0.679145 0.0998968
281 1 0.228051 0.0301479 0.5 -0.230863 -0.654891
282 1 0.125779 0.84203 0.5 -0.247151 0.197149
283 1 0.908313 0.820681 0.5 -0.271533 0.252434
284 1 0.958746 0.688772 0.5 -0.146533 -0.770466
285 1 0.148227 0.874878 0.5 0.782255 0.120817
286 1 0.889556 0.0302417 0.5 0 0
287 1 0.0173387 0.109378 0.5 -0.047696 0.291824
288 1 0.957821 0.949537 0.5 0.0370394 -0.445515
289 1 0.220164 0.186269 0.5 0.373775 0.692906
290 1 0.230695 0.882775 0.5 -0.127335 0.386393
291 1 0.115545 0.803395 0.5 0.331346 0.0440519
292 1 0.117269 0.958535 0.5 0.227775 -0.623554
293 1 0.052998 0.384707 0.5 -0.275171 0.490535
294 1 0.300039 0.203474 0.5 0.887178 0.119995
295 1 0.96651 0.0726067 0.5 -0.154633 0.233814
296 1 0.285079 0.269601 0.5 -0.946032 0.141837
297 1 0.232499 0.247205 0.5 -0.408333 -0.583689
298 1 0.00125657 0.127671 0.5 0.0111836 0.0717393
299 1 0.0708673 0.141487 0.5 0.0760847 0.220402
300 1 0.0437945 0.979805 0.5 -0.222995 0.454474
301 1 0.991004 0.236301 0.5 -0.545827 -0.354101
302 1 0.661115 0.14735 0.5 0.123795 0.402712
303 1 0.915627 0.114039 0.5 0.413929 0.234139
304 1 0.239379 0.164349 0.5 0.145551 0.582388
305 1 0.272746 0.22195 0.5 -0.62577 -0.321567
306 1 0.776928 0.131689 0.5 -0.547833 -0.605321
307 1 0.233259 0.517096 0.5 0.272455 0.869549
308 1 0.1946 0.278193 0.5 -0.476033 -0.604801
309 1 0.812195 0.0602776 0.5 0.395219 0.194994
310 1 0.23935 0.509179 0.5 0.271903 0.817059
311 1 0.11851 0.0983516 0.5 0.932485 0.100982
312 1 0.0309196 0.0346914 0.5 -0.242583 -0.0358513
313 1 0.932389 0.0595087 0.5 -0.0216101 -0.543711
314 1 0.310347 0.0244494 0.5 0.472667 -0.144371
315 1 0.279109 0.129163 0.5 0.445669 -0.595211
316 1 0.336235 0.0607819 0.5 0.507295 -0.133252
317 1 0.0627721 0.981282 0.5 0.108752 -0.86389
318 1 0.838051 0.0325581 0.5 0.190154 -0.446366
319 1 0.0311719 0.0154522 0.5 -0.11126 0.863739
320 1 0.940596 0.128609 0.5 -0.188199 0.217152
321 1 0.142984 0.302475 0.5 0.133046 -0.311413
322 1 0.95459 0.273302 0.5 0.000821964 0.710879
323 1 0.0177434 0.233756 0.5 0.235271 -0.760553
324 1 0.853256 0.846591 0.5 0.437486 -0.140539
325 1 0.241773 0.393898 0.5 -0.268283 0.0693007
326 1 0.922316 0.154299 0.5 -0.430896 -0.00344448
327 1 0.0643027 0.126307 0.5 0.110368 -0.207586
328 1 0.0757929 0.0519505 0.5 0.681622 -0.351231
329 1 0.266888 0.158372 0.5 0.00108126 0.517696
330 1 0.0488831 0.077414 0.5 -0.410368 -0.280654
331 1 0.239286 0.0495091 0.5 0.56891 0.155242
332 1 0.00293497 0.249887 0.5 0.32654 -0.0111983
333 1 0.264855 0.318197 0.5 -0.150655 0.478441
334 1 0.127217 0.924948 0.5 0.0123108 -0.717685
335 1 0.546878 0.0163016 0.5 -0.632801 -0.519417
336 1 0.169163 0.124081 0.5 0.711705 0.280926
337 1 0.865684 0.951899 0.5 0.412077 -0.579662
338 1 0.0377784 0.126346 0.5 0.423862 0.0982523
339 1 0.162854 0.0280421 0.5 -0.185823 0.571525
340 1 0.750407 0.966805 0.5 0.0763461 -0.468901
341 1 0.0194008 0.172067 0.5 -0.226899 0.00961916
342 1 0.82848 0.155954 0.5 -0.103836 0.0328075
343 1 0.195044 0.0391346 0.5 0.462874 0.590114
344 1 0.0404773 0.92904 0.5 -0.352245 -0.0896267
345 1 0.156846 0.0353008 0.5 0.504134 0.835174
346 1 0.172053 0.34313 0.5 0.432179 -0.332912
347 1 0.271329 0.233775 0.5 -0.585233 -0.117276
348 1 0.0754522 0.222813 0.5 -0.293034 -0.224772
349 1 0.983971 0.0710221 0.5 -0.981795 0.0659284
350 1 0.914492 0.841952 0.5 -0.710244 0.0589149
351 1 0.0735695 0.0989536 0.5 0.295955 0.72757
352 1 0.00452648 0.30897 0.5 0.325455 -0.444626
353 1 0.757543 0.127943 0.5 -0.0433063 -0.360926
354 1 0.16721 0.234819 0.5 -0.0710113 -0.500771
355 1 0.97259 0.368435 0.5 -0.164438 -0.640234
356 1 0.137397 0.399496 0.5 0.0435382 0.346832
357 1 0.114183 0.155972 0.5 0.194824 -0.10423
358 1 0.893947 0.204682 0.5 0.0325518 0.523194
359 1 0.097116 0.0116936 0.5 0.63264 -0.498718
360 1 0.205418 0.250898 0.5 -0.284835 -0.0835047
361 1 0.30323 0.389864 0.5 -0.243669 0.182482
362 1 0.929484 0.315455 0.5 0.729236 0.258208
363 1 0.0761512 0.966775 0.5 -0.103036 -0.638044
364 1 0.764824 0.164573 0.5 -0.0140171 -0.520347
365 1 0.289306 0.225371 0.5 -0.336309 -0.889485
366 1 0.961249 0.929195 0.5 -0.148052 0.379026
367 1 0.123991 0.0702692 0.5 -0.0796124 -0.16783
368 1 0.90099 0.985602 0.5 0.439996 -0.0499762
369 1 0.274694 0.476765 0.5 -0.681948 0.521099
370 1 0.172608 0.195154 0.5 -0.222965 -0.612894
371 1 0.86722 0.268221 0.5 0.411525 -0.0917384
372 1 0.948629 0.800744 0.5 0.559659 0.0204024
373 1 0.236106 0.226998 0.5 -0.536424 -0.527014
374 1 0.609262 0.0683432 0.5 0.571508 0.614921
375 1 0.0341588 0.9207 0.5 -0.357962 -0.115517
376 1 0.02114 0.0323322 0.5 0.483165 0.401436
377 1 0.0914059 0.821959 0.5 -0.119522 0.0449089
378 1 0.205423 0.211843 0.5 -0.183306 0.240606
379 1 0.0612174 0.0249417 0.5 0.466431 -0.330348
380 1 0.264228 0.482416 0.5 -0.465337 -0.0880498
381 1 0.302548 0.48248 0.5 -0.767654 0.147065
382 1 0.0277534 0.166085 0.5 -0.412983 0.328797
383 1 0.855126 0.149297 0.5 0.135414 0.905186
384 1 0.229609 0.16155 0.5 0.29395 0.561387
385 1 0.844149 0.982135 0.5 0.1241 -0.0196667
386 1 0.885699 0.798418 0.5 -0.38842 -0.719706
387 1 0.79966 0.00529052 0.5 0.722452 0.305413
388 1 0.970271 0.211598 0.5 0.570159 0.601001
389 1 0.349252 0.231291 0.5 0.875087 -0.245204
390 1 0.0325095 0.220896 0.5 0.85576 -0.199187
391 1 0.890395 0.967783 0.5 0.83677 -0.332997
392 1 0.982275 0.269065 0.5 0.339336 0.618078
393 1 0.909085 0.878603 0.5 0.182681 -0.0720851
394 1 0.804473 0.0782616 0.5 0.890561 -0.0334773
395 1 0.0850918 0.20498 0.5 0.079175 0.17827
396 1 0.980692 0.0248162 0.5 0.61217 -0.242489
397 1 0.931553 0.85045 0.5 -0.988236 -0.0318839
398 1 0.0783836 0.211668 0.5 -0.457732 0.29382
399 1 0.339469 0.214062 0.5 -0.0709597 -0.188361
400 1 0.0338403 0.0252597 0.5 -0.324642 0.186141
401 1 0.206804 0.11593 0.5 -0.0348487 0.623358
402 1 0.882442 0.0876337 0.5 0.837003 -0.20848
403 1 0.937699 0.960146 0.5 0.0701157 0.785003
404 1 0.138746 0.208884 0.5 -0.501506 -0.247431
405 1 0.0222264 0.0904274 0.5 -0.123873 -0.149961
406 1 0.106564 0.398834 0.5 -0.148829 0.503698
407 1 0.952447 0.903386 0.5 -0.325253 -0.577068
408 1 0.0424864 0.0929167 0.5 -0.154877 -0.154061
409 1 0.758869 0.13911 0.5 -0.209465 -0.275416
410 1 0.922382 0.143509 0.5 -0.264764 0.471469
411 1 0.288072 0.0382018 0.5 -0.258827 0.156641
412 1 0.877821 0.287493 0.5 0.287878 -0.151537
413 1 0.218268 0.215735 0.5 -0.34771 0.172142
414 1 0.119151 0.17944 0.5 -0.153146 0.686514
415 1 0.10986 0.0737619 0.5 0.613448 -0.482879
416 1 0.899054 0.931765 0.5 0.693213 -0.546315
417 1 0.994553 0.0448267 0.5 -0.744928 0.431353
418 1 0.791867 0.0951042 0.5 0.942009 0.0802698
419 1 0.451189 0.159418 0.5 -0.394361 0.474539
420 1 0.205074 0.600994 0.5 0.844202 -0.232963
421 1 0.0929959 0.93945 0.5 -0.589924 0.518244
422 1 0.204658 0.0596115 0.5 0.169146 -0.630275
423 1 0.956135 0.764777 0.5 -0.275856 0.149259
424 1 0.0367699 0.405886 0.5 -0.524488 -0.0656922
425 1 0.0601767 0.186914 0.5 -0.141142 -0.526837
426 1 0.666194 0.111631 0.5 -0.641651 0.35208
427 1 0.12381 0.16313 0.5 0.179633 0.209653
428 1 0.8886 0.0977747 0.5 0.780691 -0.18097
429 1 0.800471 0.0418355 0.5 -0.0760739 -0.0366404
430 1 0.00572687 0.0977103 0.5 0.31081 0.72938
431 1 0.197296 0.04961 0.5 0.640608 0.251473
432 1 0.0242665 0.0229636 0.5 0.539343 0.389566
433 1 0.466176 0.984766 0.5 0.947796 0.0654865
434 1 0.0254687 0.973505 0.5 -0.805489 0.333736
435 1 0.0198183 0.0496343 0.5 0.00298346 -0.117385
436 1 0.185293 0.133559 0.5 0.151614 -0.925744
437 1 0.905077 0.977125 0.5 0.815884 0.38956
438 1 0.304186 0.0987162 0.5 0.570703 0.0347199
439 1 0.353396 0.358335 0.5 -0.408559 -0.165764
440 1 0.853388 0.173247 0.5 -0.0806399 -0.763182
441 1 0.231203 0.0178163 0.5 0.563555 -0.207273
442 1 0.12712 0.0563732 0.5 0.368334 0.349384
443 1 0.492379 0.336492 0.5 0.153071 -0.48889
444 1 0.163358 0.177047 0.5 -0.776735 -0.231149
445 1 0.0821942 0.526158 0.5 0.162557 -0.419293
446 1 0.705603 0.0555233 0.5 0.123845 0.639947
447 1 0.939595 0.973291 0.5 -0.109443 0.198984
448 1 0.216294 0.149267 0.5 -0.136989 0.0486411
449 1 0.378949 0.0206382 0.5 0.259854 0.472775
450 1 0.04242 0.302486 0.5 0.629425 0.463547
451 1 0.347155 0.0426454 0.5 0.425453 0.608615
452 1 0.939984 0.161135 0.5 0.326769 0.634054
453 1 0.277747 0.2409 0.5 -0.59252 -0.434873
454 1 0.939904 0.252241 0.5 0.427851 0.633682
455 1 0.260681 0.309007 0.5 -0.45791 0.46867
456 1 0.995222 0.30026 0.5 0.0325447 -0.00828905
457 1 0.988904 0.930016 0.5 0.0979801 -0.396902
458 1 0.935729 0.228763 0.5 -0.199515 0.0881713
459 1 0.0596781 0.256267 0.5 -0.804126 0.132121
460 1 0.189839 0.0699602 0.5 0.664613 -0.415841
461 1 0.721824 0.0463843 0.5 0.44338 -0.619033
462 1 0.839704 0.0679405 0.5 0.728392 -0.156761
463 1 0.825906 0.221273 0.5 -0.0640293 -0.323066
464 1 0.86342 0.0148144 0.5 0.54235 -0.0142041
465 1 0.391274 0.225965 0.5 0.413675 0.110449
466 1 0.112228 0.203462 0.5 -0.0314774 -0.292159
467 1 0.876638 0.222837 0.5 -0.0527095 0.409931
468 1 0.39454 0.526008 0.5 0.253351 -0.0120532
469 1 0.991975 0.00252788 0.5 0.57031 -0.689066
470 1 0.246884 0.020767 0.5 0.0978631 0.0417666
471 1 0.0745336 0.932059 0.5 -0.460084 0.591693
472 1 0.350108 0.15878 0.5 -0.196819 0.11462
473 1 0.107542 0.147473 0.5 0.628069 0.188056
474 1 0.305142 0.0593682 0.5 -0.210148 0.377973
475 1 0.0049676 0.902508 0.5 0.438003 -0.326998
476 1 0.107272 0.194437 0.5 0.380143 -0.146862
477 1 0.052673 0.0195717 0.5 -0.0296437 0.0466694
478 1 0.791985 0.0784546 0.5 0.746442 0.289322
479 1 0.179381 0.3142 0.5 -0.62582 -0.116253
480 1 0.992379 0.172526 0.5 -0.801538 -0.100901
481 1 0.00187602 0.168738 0.5 -0.268965 -0.749225
482 1 0.0498526 0.293787 0.5 0 0
483 1 0.0891572 0.227978 0.5 -0.208906 0.0242827
484 1 0.252624 0.214457 0.5 -0.00969265 0.0100513
485 1 0.0998534 0.183919 0.5 0.632018 -0.328782
486 1 0.984351 0.0384884 0.5 -0.538287 0.474977
487 1 0.201467 0.168145 0.5 0.215399 0.660676
488 1 0.104912 0.17435 0.5 0.40911 -0.358034
489 1 0.901672 0.153713 0.5 0.252002 0.216083
490 1 0.865629 0.335983 0.5 -0.367184 -0.255274
491 1 0.775762 0.0672247 0.5 0.363078 0.563725
492 1 0.284055 0.535525 0.5 -0.264446 -0.238336
493 1 0.40531 0.454579 0.5 -0.372074 -0.540125
494 1 0.920979 0.970903 0.5 0.290346 0.109187
495 1 0.0506788 0.239167 0.5 0.0613749 0.0320736
496 1 0.0277149 0.400439 0.5 -0.528005 -0.102789
497 1 0.0548826 0.0104542 0.5 -0.206713 -0.00538125
498 1 0.311765 0.968134 0.5 -0.00836302 -0.103038
499 1 0.197859 0.158619 0.5 0.0883338 0.0576566
500 1 0.241638 0.431023 0.5 0.657295 0.213669
501 1 0.893828 0.171848 0.5 -0.604427 0.0552822
502 1 0.0217813 0.0609855 0.5 -0.841026 0.219779
503 1 0.0693041 0.116795 0.5 0.234159 0.756805
504 1 0.315185 0.0631647 0.5 -0.187963 0.0268262
505 1 0.982088 0.229013 0.5 0.0687269 -0.332117
506 1 0.122906 0.284345 0.5 -0.683656 -0.101215
507 1 0.314242 0.245233 0.5 -0.398644 -0.600133
508 1 0.868013 0.131272 0.5 0.900077 0.303027
509 1 0.00673255 0.157291 0.5 -0.303808 -0.649332
510 1 0.981093 0.923933 0.5 -0.523344 -0.78799
511 1 0.807634 0.0490452 0.5 -0.115099 0.122664
512 1 0.156621 0.277053 0.5 -0.685791 0.0266643
513 1 0.154521 0.168961 0.5 0.0413536 -0.304753
514 1 0.0144357 0.356468 0.5 0 0
515 1 0.129404 0.862843 0.5 -0.12651 0.777591
516 1 0.937624 0.0403973 0.5 0.308517 -0.281392
517 1 0.111881 0.24864 0.5 -0.400934 -0.406365
518 1 0.248805 0.0108568 0.5 0 0
519 1 0.248975 0.224306 0.5 0.0313607 -0.186698
520 1 0.840105 0.0524777 0.5 0.348004 -0.0906114
521 1 0.205852 0.46544 0.5 0.609947 0.164449
522 1 0.14979 0.204051 0.5 -0.823543 0.18835
523 1 0.00554843 0.825335 0.5 -0.675415 0.295354
524 1 0.939327 0.0969811 0.5 0.0633639 -0.271523
525 1 0.162082 0.469209 0.5 0.783091 0.12201
526 1 0.190043 0.390975 0.5 -0.208434 -0.399464
527 1 0.818243 0.145169 0.5 -0.348942 0.0783253
528 1 0.174464 0.28564 0.5 -0.735494 -0.326926
529 1 0.218241 0.0344427 0.5 -0.293083 -0.289047
530 1 0.908648 0.232414 0.5 0 0
531 1 0.793619 0.0131322 0.5 0.423903 0.818921
532 1 0.941997 0.191575 0.5 0.830295 0.272164
533 1 0.066117 0.0149613 0.5 0.243934 -0.0715895
534 1 0.00091469 0.971883 0.5 0.323195 0.515578
535 1 0.0930885 0.128764 0.5 0.40403 -0.753039
536 1 0.889551 0.226281 0.5 0.431771 0.024581
537 1 0.968708 0.284302 0.5 0.712588 0.517796
538 1 0.988671 0.970327 0.5 0.405936 0.612476
539 1 0.165484 0.27217 0.5 -0.723367 0.0336747
540 1 0.199769 0.710986 0.5 0.84702 0.159186
541 1 0.949452 0.943916 0.5 0.384309 -0.0955493
542 1 0.823304 0.000259945 0.5 0.431577 0.359684
543 1 0.943902 0.41777 0.5 0.495433 0.166854
544 1 0.0681844 0.0434423 0.5 0.153121 -0.486981
545 1 0.288742 0.29207 0.5 -0.195616 0.449734
546 1 0.241954 0.118103 0.5 -0.101211 0.408253
547 1 0.174883 0.0423701 0.5 -0.574015 0.117483
548 1 0.110957 8e-05 0.5 0.629878 0.128496
549 1 0.00701438 0.277426 0.5 0.242032 -0.0615414
550 1 0.965194 0.976535 0.5 -0.0894898 0.244488
551 1 0.106855 0.00978695 0.5 0.395861 -0.650726
552 1 0.056901 0.0335061 0.5 0.0488817 0.0905965
553 1 0.0952836 0.203229 0.5 -0.0326541 -0.32416
554 1 0.271878 0.301455 0.5 -0.585415 0.544549
555 1 0.112613 0.107954 0.5 0.885719 0.365202
556 1 0.0612765 0.994185 0.5 -0.212404 0.276795
557 1 0.915439 0.0114184 0.5 -0.741225 0.339082
558 1 0.99328 0.0763115 0.5 -0.511573 -0.366847
559 1 0.238879 0.543831 0.5 -0.131665 0.0115186
560 1 0.0086323 0.237512 0.5 -0.292127 -0.721996
561 1 0.0716953 0.922395 0.5 -0.417402 0.733295
562 1 0.935466 0.120433 0.5 -0.318939 0.048196
563 1 0.0326641 0.259492 0.5 -0.254998 -0.502155
564 1 0.912234 0.144736 0.5 -0.119646 0.0590355
565 1 0.819479 0.194067 0.5 0.604478 0.0900032
566 1 0.0527534 0.98358 0.5 0.289346 -0.583879
567 1 0.122558 0.647855 0.5 0.339987 0.0267021
568 1 0.300593 0.0701396 0.5 -0.300321 0.0808487
569 1 0.854429 0.117188 0.5 0.48663 0.407404
570 1 0.818423 0.0520449 0.5 0.353366 0.00010638
571 1 0.962832 0.264664 0.5 0.209694 0.794537
572 1 0.998651 0.259772 0.5 0.332371 -0.649661
573 1 0.412721 0.221968 0.5 -0.296493 -0.73565
574 1 0.140223 0.0955807 0.5 0.798879 -0.384815
575 1 0.229861 0.291548 0.5 -0.0729509 -0.222125
576 1 0.186541 0.0945342 0.5 -0.172267 -0.105459
577 1 0.0113891 0.186804 0.5 -0.0579203 -0.405399
578 1 0.101405 0.000963 0.5 0.907899 -0.277675
579 1 0.192677 0.0586428 0.5 0.468181 -0.454665
580 1 0.108339 0.337764 0.5 0.670028 -0.427935
581 1 0.120601 0.245098 0.5 -0.296457 -0.549317
582 1 0.815779 0.903845 0.5 -0.748563 0.462129
583 1 0.330952 0.208351 0.5 -0.362245 0.513052
584 1 0.0330937 0.935431 0.5 -0.78504 0.148349
585 1 0.114915 0.279239 0.5 -0.62945 -0.516415
586 1 0.901828 0.913201 0.5 0.0563074 0.19115
587 1 0.268377 0.340185 0.5 -0.175253 0.244095
588 1 0.942253 0.0673229 0.5 0.358072 -0.119749
589 1 0.908229 0.093433 0.5 -0.136812 0.399979
590 1 0.0529498 0.0560286 0.5 -0.238337 -0.505508
591 1 0.0658945 0.226265 0.5 0.378863 -0.560109
592 1 0.159533 0.149196 0.5 0.547339 0.216787
593 1 0.0413348 0.0830626 0.5 -0.732428 0.0154489
594 1 0.203322 0.335761 0.5 0 0
595 1 0.153347 0.184523 0.5 0.23741 0.115616
596 1 0.154814 0.493603 0.5 0.372576 -0.230105
597 1 0.836471 0.182924 0.5 -0.20495 -0.0641896
598 1 0.941985 0.33039 0.5 0.179845 0.0892994
599 1 0.863317 0.121142 0.5 0.476433 0.463906
600 1 0.120698 0.491055 0.5 -0.0924046 0.875849
601 1 0.0285578 0.328294 0.5 0.0784789 -0.208139
602 1 0.91122 0.223414 0.5 0.0983582 -0.773935
603 1 0.98984 0.74111 0.5 -0.503272 0.258879
604 1 0.970136 0.849364 0.5 0.0413211 0.439706
605 1 0.211706 0.361634 0.5 0.504272 -0.679801
606 1 0.32145 0.472451 0.5 0.030049 0.150999
607 1 0.86681 0.400154 0.5 -0.246195 0.326525
608 1 0.170992 0.382388 0.5 0.467177 -0.0501357
609 1 0.972261 0.267735 0.5 0.151637 0.87508
610 1 0.270207 0.594371 0.5 0.193278 -0.169894
611 1 0.332638 0.493843 0.5 0.175441 0.285135
612 1 0.109235 0.744493 0.5 0 0
613 1 0.26729 0.131818 0.5 -0.159174 -0.406419
614 1 0.294451 0.690691 0.5 0.66311 -0.0703981
615 1 0.135493 0.536499 0.5 -0.237055 -0.193286
616 1 0.973976 0.29297 0.5 0.10097 0.560199
617 1 0.905359 0.414412 0.5 0.451904 -0.41233
618 1 0.963331 0.381507 0.5 0.376762 0.307551
619 1 0.926638 0.365855 0.5 0.406324 -0.0922884
620 1 0.968972 0.390773 0.5 0.419813 -0.177213
621 1 0.144398 0.0868753 0.5 0.551228 -0.666611
622 1 0.133941 0.267717 0.5 -0.514902 0.355079
623 1 0.924332 0.395534 0.5 0.43409 0.265205
624 1 0.196524 0.466799 0.5 0.273948 0.185652
625 1 0.928382 0.662199 0.5 -0.152889 0.293112
626 1 0.216275 0.467475 0.5 -0.0815548 0.65461
627 1 0.0612272 0.23604 0.5 0.214749 -0.121727
628 1 0.880044 0.347784 0.5 -0.525828 -0.359846
629 1 0.00768661 0.66532 0.5 -0.369288 0.506521
630 1 0.0483782 0.476136 0.5 0.595927 0.323109
631 1 0.293818 0.532023 0.5 -0.486682 -0.725913
632 1 0.213304 0.300854 0.5 0.2168 0.404724
633 1 0.110194 0.298132 0.5 0 0
634 1 0.0744024 0.507167 0.5 -0.271307 0.0687975