# LAMMPS data file written by Ovito 3.7.11
9250 atoms
1 atom types
-58.36 58.36 xlo xhi
-58.36 58.36 ylo yhi
-0.5 0.5 zlo zhi

Atoms  # atomic

1 1 -54.920366648 36.7481248 0.0
2 1 13.94733968 -49.678728232 0.0
3 1 50.05117008 15.6416472 0.0
4 1 -32.19616152 -50.460658856 0.0
5 1 14.82122232 -56.169655824 0.0
6 1 38.44768472 -0.05742624 0.0
7 1 -18.66831352 40.97794088 0.0
8 1 -53.401944496 -3.12190984 0.0
9 1 -26.46229152 -41.3667352 0.0
10 1 -57.5631268816 57.54832912 0.0
11 1 -52.26190524 51.5534732 0.0
12 1 44.79106656 30.02190136 0.0
13 1 -41.79369696 38.10721248 0.0
14 1 50.7959604 -38.753958 0.0
15 1 -52.8732846 -46.11128648 0.0
16 1 -22.1458692 -15.83983776 0.0
17 1 -48.34402336 26.13232408 0.0
18 1 -11.13146968 46.04113776 0.0
19 1 49.49908448 -39.18558856 0.0
20 1 -32.28802016 27.74329352 0.0
21 1 -27.6533024 53.54716752 0.0
22 1 1.50405392 -43.50166072 0.0
23 1 -15.59624312 36.439984 0.0
24 1 -28.12123288 20.97715184 0.0
25 1 -53.795944528 28.97550656 0.0
26 1 -42.8356564 23.56891944 0.0
27 1 -43.68409408 -54.016125136 0.0
28 1 -29.79791568 42.11129208 0.0
29 1 -11.19905056 42.77589576 0.0
30 1 46.99754144 -40.82317016 0.0
31 1 26.90419344 27.69718912 0.0
32 1 -26.51329816 -23.94639192 0.0
33 1 57.5873136 39.14450312 0.0
34 1 -23.92199744 31.8307112 0.0
35 1 -48.1925208 -49.035262544 0.0
36 1 -46.22065312 -55.118323768 0.0
37 1 53.921722 22.88377304 0.0
38 1 -18.41036232 55.91156456 0.0
39 1 -57.9000858496 -45.59911912 0.0
40 1 24.3501264 -49.192601104 0.0
41 1 -14.85705536 -44.93439872 0.0
42 1 -34.34976224 -43.0918568 0.0
43 1 -48.61761504 22.15789136 0.0
44 1 19.83166176 -45.25339448 0.0
45 1 -28.31919 38.72757928 0.0
46 1 -9.43027568 -52.210653488 0.0
47 1 -54.7831156 -34.23724416 0.0
48 1 -3.26710952 56.66545904 0.0
49 1 14.50386064 -43.110532 0.0
50 1 -40.3226748 -38.11970152 0.0
51 1 -40.74018224 29.60182608 0.0
52 1 -12.31792848 36.66221888 0.0
53 1 -37.77386016 50.00891744 0.0
54 1 52.75358824 38.55856872 0.0
55 1 -25.79266888 46.83004824 0.0
56 1 -28.1587 50.22765072 0.0
57 1 11.96695144 57.65641184 0.0
58 1 -50.19508584 -13.40202384 0.0
59 1 7.96929144 -54.019439984 0.0
60 1 55.8441004 49.46815368 0.0
61 1 -15.12947984 54.0693728 0.0
62 1 -58.1593186352 54.85326432 0.0
63 1 -38.81243472 1.21120344 0.0
64 1 -55.307818688 43.27242264 0.0
65 1 -29.46608072 39.34526152 0.0
66 1 28.689776 -49.149239624 0.0
67 1 36.64867936 42.00379296 0.0
68 1 -44.2041984 -39.59224104 0.0
69 1 -35.34900216 -50.838341432 0.0
70 1 -53.473622248 48.48105264 0.0
71 1 -56.414942904 14.30158488 0.0
72 1 -34.8998636 -20.15567648 0.0
73 1 6.7796812 47.76730984 0.0
74 1 50.55446672 -57.490885372 0.0
75 1 -46.6132992 52.6127072 0.0
76 1 31.53494272 -44.350682 0.0
77 1 15.96694584 -54.539427584 0.0
78 1 41.26378816 -56.9616944 0.0
79 1 23.9579472 37.24546872 0.0
80 1 -41.33533752 36.56160624 0.0
81 1 -35.65177384 55.46966264 0.0
82 1 -51.729813776 -35.66939856 0.0
83 1 -48.394539776 -40.49682104 0.0
84 1 50.35896072 -18.04969752 0.0
85 1 -52.51979808 32.90009984 0.0
86 1 -38.77975312 24.08155368 0.0
87 1 37.15967952 47.38330104 0.0
88 1 50.53824264 54.97558688 0.0
89 1 -34.1382656 47.9170616 0.0
90 1 -55.061306048 54.06248632 0.0
91 1 46.79783352 23.03539232 0.0
92 1 57.4507512 -54.164919792 0.0
93 1 -2.20390704 -26.15998672 0.0
94 1 -54.605852936 -31.83934848 0.0
95 1 -23.69509376 -28.3956416 0.0
96 1 -19.60942688 51.20541416 0.0
97 1 22.35970024 -46.27562824 0.0
98 1 50.75604216 25.40048968 0.0
99 1 -33.81856952 -35.52711688 0.0
100 1 -18.98462472 -32.24588424 0.0
101 1 37.68620344 42.63268032 0.0
102 1 -55.733835016 33.00176296 0.0
103 1 -4.37431544 56.64328224 0.0
104 1 23.09375232 21.08826928 0.0
105 1 52.7965412 11.87590984 0.0
106 1 1.74998296 -42.4358904 0.0
107 1 41.25608464 -36.30914088 0.0
108 1 20.96711392 -32.8881944 0.0
109 1 -21.7717816 31.9544344 0.0
110 1 45.25491184 51.27988152 0.0
111 1 -15.42559848 21.01882088 0.0
112 1 -25.87052112 -57.6817330768 0.0
113 1 47.2155744 21.86212288 0.0
114 1 10.3256348 32.71183048 0.0
115 1 -45.84539832 39.64709944 0.0
116 1 42.33165944 43.31164056 0.0
117 1 29.23882688 42.63233016 0.0
118 1 -52.331610424 30.4715068 0.0
119 1 57.88039752 44.0915636 0.0
120 1 -48.163784336 49.49616648 0.0
121 1 39.54987168 43.47248072 0.0
122 1 -49.163257696 35.61325624 0.0
123 1 -1.19042728 44.66430864 0.0
124 1 -54.617641656 -52.231184536 0.0
125 1 46.16462752 11.7467008 0.0
126 1 1.36072176 41.60087552 0.0
127 1 -23.74598368 34.31416264 0.0
128 1 -57.4187279008 -57.9970988448 0.0
129 1 9.74180136 58.14243392 0.0
130 1 27.0971316 45.27078576 0.0
131 1 -41.07820336 -44.21330256 0.0
132 1 -24.13968024 -51.593414784 0.0
133 1 -11.51582864 7.00355016 0.0
134 1 -42.26629624 49.7816636 0.0
135 1 -52.390425632 -40.54654376 0.0
136 1 45.29833168 10.87386864 0.0
137 1 54.08501328 41.77618896 0.0
138 1 -7.88898808 -10.011658 0.0
139 1 18.4195832 -15.25226928 0.0
140 1 -11.23558392 -53.116949272 0.0
141 1 -40.83986112 58.08780896 0.0
142 1 -18.978672 33.4093492 0.0
143 1 -6.5240644 45.65607848 0.0
144 1 -37.9841896 36.01582352 0.0
145 1 54.11874536 48.0717156 0.0
146 1 56.9231768 45.5622356 0.0
147 1 21.50075776 39.29016968 0.0
148 1 -31.68060928 34.50850144 0.0
149 1 -13.9661316 -7.93789376 0.0
150 1 -12.1633912 45.47784704 0.0
151 1 -38.7002668 34.84453832 0.0
152 1 -18.5433064 53.20494448 0.0
153 1 -54.887650032 48.31180864 0.0
154 1 2.8123684 39.86676648 0.0
155 1 -15.90975304 50.83085968 0.0
156 1 53.56374176 46.01721016 0.0
157 1 -28.05645328 -57.635005392 0.0
158 1 33.54894632 -45.32774512 0.0
159 1 35.7595064 41.32074752 0.0
160 1 -11.25285848 14.65863136 0.0
161 1 36.12985896 -8.24264968 0.0
162 1 -36.00275088 56.7212512 0.0
163 1 -40.1236672 -35.90342216 0.0
164 1 42.01359744 -53.957531696 0.0
165 1 25.75380112 -23.03340808 0.0
166 1 -28.1201824 -55.397401288 0.0
167 1 10.5328128 -54.20926172 0.0
168 1 -22.45097528 28.18764656 0.0
169 1 14.7779192 -45.01797024 0.0
170 1 3.78838104 -44.36258744 0.0
171 1 -55.375107768 47.26074504 0.0
172 1 -33.38005248 -38.65696368 0.0
173 1 -17.9328608 -44.16556408 0.0
174 1 -32.07045408 36.4434856 0.0
175 1 27.46806776 54.3670088 0.0
176 1 -23.71493616 -22.24893296 0.0
177 1 -49.41358708 -25.60346576 0.0
178 1 45.7507384 40.33423008 0.0
179 1 47.98545952 52.1715056 0.0
180 1 18.84514432 -43.54508056 0.0
181 1 56.06049928 21.54978016 0.0
182 1 38.44254904 -45.8744616 0.0
183 1 -54.08489656 -50.182608472 0.0
184 1 -24.70588896 -0.73171768 0.0
185 1 -4.98989672 43.9380768 0.0
186 1 46.80133512 36.17362896 0.0
187 1 -42.17315368 44.6605736 0.0
188 1 -27.7262524 39.67966432 0.0
189 1 44.98061984 -34.24378048 0.0
190 1 -23.71645352 42.30061192 0.0
191 1 52.61842648 -55.08086832 0.0
192 1 34.33984104 42.6798352 0.0
193 1 38.68345912 57.84491464 0.0
194 1 44.42234808 55.59058456 0.0
195 1 -45.07831448 -13.42408392 0.0
196 1 -5.09739584 -21.82407216 0.0
197 1 -38.7732168 57.26668376 0.0
198 1 -30.57211944 34.33248768 0.0
199 1 46.53614728 47.77653072 0.0
200 1 52.25157552 45.967254 0.0
201 1 53.89475968 -48.078263592 0.0
202 1 -4.95102896 26.2118104 0.0
203 1 -14.2987836 57.29913192 0.0
204 1 40.24610648 21.50892816 0.0
205 1 53.93724576 12.4295128 0.0
206 1 -53.276855672 -55.109032856 0.0
207 1 3.37099032 41.6025096 0.0
208 1 32.36447176 51.22875816 0.0
209 1 -40.5199316 -28.20106936 0.0
210 1 -26.12380352 -42.42526888 0.0
211 1 -8.8654676 21.76022632 0.0
212 1 37.78903376 51.09161216 0.0
213 1 -45.78622128 -16.0087316 0.0
214 1 -16.65489352 -52.78556952 0.0
215 1 -37.64114952 -17.42501208 0.0
216 1 39.90796864 52.375182 0.0
217 1 -6.2631952 -56.983089176 0.0
218 1 -17.74284064 -55.679046648 0.0
219 1 32.69245496 45.88134808 0.0
220 1 50.207108 -19.13636072 0.0
221 1 23.685406 -0.51741976 0.0
222 1 -37.93586752 3.90568464 0.0
223 1 -12.133044 -30.33529456 0.0
224 1 45.39684336 54.69394152 0.0
225 1 -18.41631504 54.35813808 0.0
226 1 -42.29045728 -55.727135288 0.0
227 1 -46.1259932 -46.51478752 0.0
228 1 -43.84166608 -46.02012816 0.0
229 1 -50.732348 -46.844731616 0.0
230 1 19.61001048 -21.21467704 0.0
231 1 -17.28004584 -45.0720116 0.0
232 1 -4.2316836 -23.82476968 0.0
233 1 16.69481176 -46.66629008 0.0
234 1 -19.57020896 -51.103716024 0.0
235 1 49.76613984 -46.63711008 0.0
236 1 -56.22361548 57.37394944 0.0
237 1 -39.04762552 -55.902728856 0.0
238 1 47.86231992 16.20575496 0.0
239 1 -18.39122024 -40.71963952 0.0
240 1 -39.50878624 51.67101024 0.0
241 1 -24.17691392 -40.9938148 0.0
242 1 41.32483272 57.2750876 0.0
243 1 -36.11503552 15.06458352 0.0
244 1 -9.34040128 -25.03562296 0.0
245 1 -31.02335896 -14.84293224 0.0
246 1 46.801802 -56.566959032 0.0
247 1 -57.728206312 -39.09571416 0.0
248 1 -40.46927512 -50.6132936 0.0
249 1 -36.41570624 -37.95057424 0.0
250 1 -46.47370208 -5.69698648 0.0
251 1 -50.763418864 19.62553424 0.0
252 1 -52.39105592 -34.67039208 0.0
253 1 -30.3320264 46.12109096 0.0
254 1 39.64593224 16.33531416 0.0
255 1 4.12418448 -49.025971632 0.0
256 1 -48.170273968 37.56119632 0.0
257 1 -50.165042112 -31.68049256 0.0
258 1 -29.95140248 44.12856384 0.0
259 1 32.53546656 35.1922472 0.0
260 1 43.38809216 12.07806888 0.0
261 1 3.84335616 -29.448456 0.0
262 1 8.1377184 -41.04878992 0.0
263 1 46.60711304 39.2978732 0.0
264 1 -16.68022176 33.20707344 0.0
265 1 35.60508584 34.22919048 0.0
266 1 -53.460117744 -39.64301424 0.0
267 1 51.4425892 51.1694644 0.0
268 1 -32.8928632 38.60642392 0.0
269 1 57.17622576 21.81450112 0.0
270 1 -11.9334528 -35.30803344 0.0
271 1 -21.1899324 44.18248848 0.0
272 1 21.16623824 38.11304848 0.0
273 1 21.26965216 47.0749268 0.0
274 1 -32.06683576 15.14045152 0.0
275 1 -39.2576048 45.24102216 0.0
276 1 -57.7429025272 35.21185616 0.0
277 1 57.96116776 -49.32254548 0.0
278 1 -41.97974864 -25.43200408 0.0
279 1 -27.39838592 48.46891376 0.0
280 1 -55.700324704 -52.992374016 0.0
281 1 -23.31680424 25.96179616 0.0
282 1 -57.9859894352 49.85566408 0.0
283 1 5.70422312 31.26426904 0.0
284 1 -53.163263768 26.94119368 0.0
285 1 -32.24763504 29.94171472 0.0
286 1 30.1289336 -39.65982192 0.0
287 1 44.28812008 -43.4892884 0.0
288 1 14.41153512 44.75138176 0.0
289 1 -28.70973512 -12.11892088 0.0
290 1 -4.23880352 -56.463159936 0.0
291 1 48.1429148 19.66276792 0.0
292 1 -55.401171344 -56.261070928 0.0
293 1 -33.4046804 -42.25485768 0.0
294 1 -47.628424712 48.06109408 0.0
295 1 8.1283808 40.5496952 0.0
296 1 -31.57404392 45.70533432 0.0
297 1 -24.15006832 -17.3778572 0.0
298 1 56.46831896 -18.59793136 0.0
299 1 -44.74881392 56.68518472 0.0
300 1 -41.20005904 57.03627848 0.0
301 1 -43.35225912 -11.4478976 0.0
302 1 42.24587024 -14.75831024 0.0
303 1 -57.8266409568 -35.22831368 0.0
304 1 -35.55606344 -39.9946916 0.0
305 1 -37.32028624 52.62402904 0.0
306 1 42.7580376 -55.214734488 0.0
307 1 -10.57121368 15.90099904 0.0
308 1 -27.60696456 -56.479979288 0.0
309 1 -43.92266976 -26.87898192 0.0
310 1 -57.8276365784 20.16676488 0.0
311 1 -49.17489468 -44.01814672 0.0
312 1 46.15715744 -38.9267036 0.0
313 1 -24.20609392 -53.526344672 0.0
314 1 -0.1330608 -45.33428144 0.0
315 1 -36.42352648 48.96555736 0.0
316 1 -10.90655024 47.25070712 0.0
317 1 -54.175809768 53.17144584 0.0
318 1 37.35600256 -29.25726864 0.0
319 1 -39.72413464 -37.07774208 0.0
320 1 57.12837056 -47.089645192 0.0
321 1 -20.02109832 -24.75024256 0.0
322 1 54.6839036 -29.2482812 0.0
323 1 -49.539376224 -7.91454976 0.0
324 1 17.38882888 -52.85992016 0.0
325 1 -26.9897492 -8.5660808 0.0
326 1 54.92924904 -26.0554056 0.0
327 1 52.93462096 -34.8502576 0.0
328 1 35.91672824 47.11332768 0.0
329 1 -36.69700144 -48.42222576 0.0
330 1 42.45083056 -39.13866712 0.0
331 1 -32.00474072 -53.004267784 0.0
332 1 -25.84402568 -17.7000044 0.0
333 1 -42.28847304 -19.25926688 0.0
334 1 -55.98042936 49.20436648 0.0
335 1 -6.00967936 -40.04441432 0.0
336 1 -49.88309328 -29.40725384 0.0
337 1 34.703774 -24.01175512 0.0
338 1 -36.46239424 -50.966803464 0.0
339 1 -9.2669844 39.62375544 0.0
340 1 9.670252 -56.242827592 0.0
341 1 49.19748 -35.9952808 0.0
342 1 17.7017552 -29.9982072 0.0
343 1 -31.74912392 51.52347616 0.0
344 1 42.37601304 35.42848848 0.0
345 1 -47.664374472 -56.821385288 0.0
346 1 -33.41530192 -27.89514624 0.0
347 1 -36.87173128 55.87643184 0.0
348 1 -38.02364096 -54.981679664 0.0
349 1 53.84165208 -44.35138232 0.0
350 1 36.13662872 54.93240048 0.0
351 1 -39.57239864 -40.32337512 0.0
352 1 40.67668656 -17.84508736 0.0
353 1 -45.39217456 0.53200976 0.0
354 1 -37.59411136 -38.99521824 0.0
355 1 51.63611096 -22.16711224 0.0
356 1 -25.7881168 3.34367784 0.0
357 1 -23.69929568 -45.8411964 0.0
358 1 49.27825024 -29.15350456 0.0
359 1 -42.55331072 37.31865216 0.0
360 1 -22.11575544 -16.93677232 0.0
361 1 -39.39930288 -14.5328072 0.0
362 1 -53.718815952 4.67743728 0.0
363 1 55.30905592 40.73387936 0.0
364 1 -56.21725424 -0.6909824 0.0
365 1 -28.66538152 52.99111344 0.0
366 1 48.70702256 -58.0175096712 0.0
367 1 -38.8730124 50.67293752 0.0
368 1 36.83939984 34.85597688 0.0
369 1 -31.58945096 -18.4411764 0.0
370 1 -52.436646752 -31.14976672 0.0
371 1 31.81121896 -8.81784584 0.0
372 1 -52.52026496 23.02453736 0.0
373 1 -27.25400328 58.08243984 0.0
374 1 22.07770472 -33.2138432 0.0
375 1 48.21738216 -50.055593768 0.0
376 1 29.54206544 -38.53055592 0.0
377 1 38.19930456 48.0851384 0.0
378 1 -40.00449608 52.7568564 0.0
379 1 -51.480336448 54.94594 0.0
380 1 -23.7250908 -34.3956332 0.0
381 1 -22.28278176 3.53276424 0.0
382 1 34.75443048 -39.42929992 0.0
383 1 -40.47301016 -25.00270792 0.0
384 1 53.11448648 33.91544712 0.0
385 1 21.84636568 21.13495728 0.0
386 1 -22.11237056 -48.958647536 0.0
387 1 27.49503008 -28.6407536 0.0
388 1 -38.63968912 -38.53254016 0.0
389 1 -29.29240136 -29.81402304 0.0
390 1 -43.0130708 -39.73650696 0.0
391 1 -45.85858768 55.949732 0.0
392 1 -29.868648 -49.232496 0.0
393 1 17.61923416 -24.12625744 0.0
394 1 41.64301144 -47.891838408 0.0
395 1 -41.6929676 -35.38623584 0.0
396 1 57.50105752 47.83103896 0.0
397 1 50.22776744 -52.681875472 0.0
398 1 39.03490304 -25.76664032 0.0
399 1 -12.4230932 -29.26252104 0.0
400 1 -40.92635064 49.51810984 0.0
401 1 -29.32309872 -36.98635032 0.0
402 1 -32.83461992 49.53958632 0.0
403 1 39.74817896 -52.19794268 0.0
404 1 -29.98151624 -6.54612448 0.0
405 1 -42.26011008 -38.73831752 0.0
406 1 -31.8394652 -4.77594896 0.0
407 1 -48.011581456 50.58971616 0.0
408 1 55.91331536 -57.9896777872 0.0
409 1 16.41760176 -15.09679824 0.0
410 1 46.26967552 -20.51377344 0.0
411 1 58.0401872 48.85303928 0.0
412 1 -50.952260152 -12.5684096 0.0
413 1 -48.952846552 -11.15866544 0.0
414 1 -20.72398616 50.76164472 0.0
415 1 -34.83309976 -44.69232144 0.0
416 1 -51.66073888 53.828346 0.0
417 1 -34.16966328 49.6392652 0.0
418 1 28.3361144 57.9934992 0.0
419 1 -3.45783 -12.0128224 0.0
420 1 -29.70605704 25.31446704 0.0
421 1 -50.372803712 42.197198 0.0
422 1 -18.44747928 50.38767384 0.0
423 1 -56.815117424 46.96275888 0.0
424 1 -28.09427056 -5.3621168 0.0
425 1 53.33800528 -31.55852016 0.0
426 1 6.42707008 -20.49556512 0.0
427 1 -49.684447512 -30.53010024 0.0
428 1 -40.7580404 -29.57299624 0.0
429 1 32.84127296 -46.19941008 0.0
430 1 -45.48251584 -35.447864 0.0
431 1 51.97868416 32.88212496 0.0
432 1 54.61690632 37.18279008 0.0
433 1 -13.6550728 -24.41303848 0.0
434 1 -58.1776821928 -55.750187488 0.0
435 1 -31.30710528 -57.3218759792 0.0
436 1 -25.79722096 -36.98786768 0.0
437 1 47.86325368 -48.11186728 0.0
438 1 -44.72570336 -53.373709928 0.0
439 1 -12.72084592 -17.50076336 0.0
440 1 -56.867489688 -2.00093096 0.0
441 1 -6.3022964 -20.0309028 0.0
442 1 6.54729168 53.9549872 0.0
443 1 -34.83520072 20.34266192 0.0
444 1 -32.29012112 -29.41192264 0.0
445 1 -35.13365376 24.79342896 0.0
446 1 9.55773392 -40.19463296 0.0
447 1 22.06930088 51.54565296 0.0
448 1 -29.0965452 -58.1857090272 0.0
449 1 -28.09438728 46.53019456 0.0
450 1 -27.91778992 -35.6597108 0.0
451 1 -24.19675632 43.93387488 0.0
452 1 -35.69612744 -14.06581048 0.0
453 1 -35.66157832 -53.803729752 0.0
454 1 -38.58798216 -5.36818624 0.0
455 1 3.37460864 -23.01706728 0.0
456 1 -37.14392232 4.67031736 0.0
457 1 -41.61044656 42.25077248 0.0
458 1 -54.013020384 -12.86966392 0.0
459 1 -37.08451184 -19.43376328 0.0
460 1 -27.3731744 44.38149608 0.0
461 1 28.24659016 -33.84459808 0.0
462 1 -53.651386808 -15.1216596 0.0
463 1 54.78264872 -41.8435364 0.0
464 1 30.4265696 -47.691581904 0.0
465 1 -26.61834616 -38.11561632 0.0
466 1 -53.279248432 -1.37192688 0.0
467 1 -32.69163792 -44.44219048 0.0
468 1 -15.53052976 -6.55476176 0.0
469 1 -31.5704256 50.23301984 0.0
470 1 -29.401768 -45.81540128 0.0
471 1 -11.35942384 -51.12096724 0.0
472 1 -18.58567576 -53.186456032 0.0
473 1 -51.392784776 49.82671752 0.0
474 1 53.42928032 -39.01412688 0.0
475 1 50.02222352 34.06228088 0.0
476 1 -22.14633608 -40.01500088 0.0
477 1 -30.6891896 52.07124312 0.0
478 1 16.07187712 -27.13284792 0.0
479 1 -14.51553264 -0.92687352 0.0
480 1 35.97765608 49.62572568 0.0
481 1 52.51571288 -20.21917216 0.0
482 1 -37.40420792 -44.91642384 0.0
483 1 -36.2905824 -10.70894328 0.0
484 1 -50.231864312 -39.82287976 0.0
485 1 -38.08795368 -35.24897312 0.0
486 1 -42.73971256 -43.46746176 0.0
487 1 -2.4639592 49.82531688 0.0
488 1 -39.00128768 -36.16300744 0.0
489 1 39.86419864 -37.08556232 0.0
490 1 57.15906792 -26.65102776 0.0
491 1 36.26035192 -49.20115668 0.0
492 1 -18.98707584 22.02483056 0.0
493 1 -28.345452 3.68111536 0.0
494 1 36.8344976 -43.05287232 0.0
495 1 55.92907256 -6.73486072 0.0
496 1 -53.194276272 46.17991784 0.0
497 1 28.64297128 49.7828308 0.0
498 1 -42.4639032 39.02428152 0.0
499 1 -16.70765096 -41.66752264 0.0
500 1 -26.99418456 -17.96881056 0.0
501 1 24.14364872 -14.81083424 0.0
502 1 42.03157232 -42.29827752 0.0
503 1 -46.45304264 -21.02033824 0.0
504 1 52.38416944 31.81950608 0.0
505 1 -24.858442 -28.7183724 0.0
506 1 -57.187477568 -15.00657368 0.0
507 1 -16.35574016 49.71816792 0.0
508 1 56.82303104 -53.19117152 0.0
509 1 36.62755304 -12.3775724 0.0
510 1 58.21911896 -36.5240224 0.0
511 1 31.33616856 -23.71353552 0.0
512 1 -25.11242472 -29.93436136 0.0
513 1 37.59131008 -35.14042352 0.0
514 1 -45.3708148 -5.52890968 0.0
515 1 56.40879176 35.6912252 0.0
516 1 35.37561432 -35.63041408 0.0
517 1 -32.75081496 0.92220472 0.0
518 1 -11.43470824 39.74736192 0.0
519 1 -45.76719592 -41.70662384 0.0
520 1 49.2050668 -51.017751744 0.0
521 1 -24.80813568 -36.43905024 0.0
522 1 -21.71190424 -23.9807076 0.0
523 1 40.76259248 39.94368496 0.0
524 1 8.58744056 -47.41207252 0.0
525 1 -31.55665264 9.37716808 0.0
526 1 -25.85978288 -8.6075164 0.0
527 1 -54.723506696 -19.47426512 0.0
528 1 -21.05547096 -42.36865968 0.0
529 1 -15.01591128 -49.175431592 0.0
530 1 -48.748061312 -28.8409284 0.0
531 1 41.89477648 -41.14741832 0.0
532 1 55.91681696 -2.3291476 0.0
533 1 55.28711256 48.48116936 0.0
534 1 -33.13715816 57.14155992 0.0
535 1 -58.1130426568 -40.10709296 0.0
536 1 54.29207456 -15.15655888 0.0
537 1 -36.06928128 -32.3857148 0.0
538 1 -52.956167472 38.57374232 0.0
539 1 -31.0055008 58.23709384 0.0
540 1 47.66634704 34.0437224 0.0
541 1 15.34856328 46.74881112 0.0
542 1 22.15368944 -56.891113816 0.0
543 1 -35.77631408 -3.04148976 0.0
544 1 -39.44704136 34.03356776 0.0
545 1 -22.73518848 -35.95232784 0.0
546 1 -45.00734872 -33.75460696 0.0
547 1 20.43452056 49.00745984 0.0
548 1 -52.457808088 44.81277648 0.0
549 1 -45.71945744 -52.88343924 0.0
550 1 -54.19041144 -30.58799336 0.0
551 1 -22.84992424 32.16616448 0.0
552 1 -32.08796208 39.88474136 0.0
553 1 -42.85771648 -3.02211424 0.0
554 1 -22.38304424 44.13393296 0.0
555 1 -49.58306452 -32.75735128 0.0
556 1 -50.030872472 40.04289696 0.0
557 1 50.1382432 -53.850487784 0.0
558 1 -35.47984528 -25.73979472 0.0
559 1 -18.48179496 26.5969864 0.0
560 1 -47.62076788 5.89681112 0.0
561 1 56.6687272 34.52414192 0.0
562 1 -48.674072504 -30.0752424 0.0
563 1 -36.98833456 -3.40087064 0.0
564 1 23.93320256 -28.76319288 0.0
565 1 36.0384672 -51.413946112 0.0
566 1 -18.53373536 -58.2448691428 0.0
567 1 55.37792072 15.3942008 0.0
568 1 -33.44133048 41.8925588 0.0
569 1 -44.16019496 -21.62284688 0.0
570 1 44.15039048 54.49680144 0.0
571 1 -46.724486672 3.75383192 0.0
572 1 -39.13773336 -54.604604032 0.0
573 1 18.78164864 -38.84663368 0.0
574 1 55.74290416 -30.93827008 0.0
575 1 -17.56706032 55.16397296 0.0
576 1 -36.30178752 52.21200744 0.0
577 1 -17.26965776 -32.04465896 0.0
578 1 -57.006619928 -42.65135552 0.0
579 1 48.4131216 -46.701224376 0.0
580 1 -12.87293208 -46.48572424 0.0
581 1 -30.23795008 -41.00478648 0.0
582 1 35.20065104 50.55750144 0.0
583 1 -32.32408664 54.96531552 0.0
584 1 -26.51399848 33.39802736 0.0
585 1 -27.86888424 -52.95113684 0.0
586 1 39.59504232 -40.68649104 0.0
587 1 55.14074568 7.5354432 0.0
588 1 57.3031004 56.3681732 0.0
589 1 39.33954224 -50.137671272 0.0
590 1 18.2334148 45.15534968 0.0
591 1 -56.803760568 -38.4522368 0.0
592 1 56.89889904 -42.8496628 0.0
593 1 -48.917772192 -48.112614288 0.0
594 1 -17.80085048 -0.48590536 0.0
595 1 56.30012544 -34.13102896 0.0
596 1 -42.25660848 22.54528504 0.0
597 1 19.63743968 -6.76812592 0.0
598 1 -34.87313472 0.00968776 0.0
599 1 -53.694503176 -24.63457304 0.0
600 1 -33.10564376 4.35458976 0.0
601 1 -41.55267016 -53.848958752 0.0
602 1 18.42611952 21.13659136 0.0
603 1 48.94863296 23.83387384 0.0
604 1 43.0486704 51.51460544 0.0
605 1 -29.52105584 -2.55511752 0.0
606 1 -24.72736544 -5.17991688 0.0
607 1 56.5035684 -15.31401416 0.0
608 1 -14.68664416 -2.09967608 0.0
609 1 48.24236024 0.11298496 0.0
610 1 -21.39489272 4.21044056 0.0
611 1 -38.27353848 11.83704208 0.0
612 1 50.849068 41.05602656 0.0
613 1 -39.69740576 46.54128296 0.0
614 1 -36.714276 28.95694808 0.0
615 1 46.05677824 -0.76836776 0.0
616 1 -39.91030304 -19.72439608 0.0
617 1 -17.69953752 15.74832928 0.0
618 1 -25.2809684 4.2929616 0.0
619 1 47.55721384 1.87288912 0.0
620 1 -27.79663456 -13.34319696 0.0
621 1 37.73102392 -42.346016 0.0
622 1 -25.22389232 44.58598952 0.0
623 1 -54.193025968 -0.48403784 0.0
624 1 -9.43552808 8.53211528 0.0
625 1 12.76298184 44.46063224 0.0
626 1 -29.97673072 -13.7828812 0.0
627 1 -36.4971768 -35.76720992 0.0
628 1 57.4192368 -13.41848136 0.0
629 1 26.91784968 31.4157716 0.0
630 1 38.11398224 4.37419872 0.0
631 1 -50.499444912 7.22870304 0.0
632 1 -28.9343044 19.98958392 0.0
633 1 -24.57317832 -33.13657456 0.0
634 1 32.02820144 50.09984232 0.0
635 1 -25.9357676 -31.10774752 0.0
636 1 -28.5392072 -8.89149616 0.0
637 1 -57.042593032 1.65357224 0.0
638 1 -21.95549888 -18.52614856 0.0
639 1 33.83210904 -5.35873192 0.0
640 1 -42.94607352 12.67590872 0.0
641 1 -13.21947376 -20.72562024 0.0
642 1 -47.146616224 -26.58566456 0.0
643 1 -41.56667656 -45.6602804 0.0
644 1 48.40425088 -16.45787016 0.0
645 1 52.8239704 -33.48043168 0.0
646 1 -19.53087432 -15.82688184 0.0
647 1 57.71780656 35.44938136 0.0
648 1 -33.15513304 -47.49406832 0.0
649 1 -41.45182408 2.35681024 0.0
650 1 -47.928815304 27.28715176 0.0
651 1 37.72518792 31.71060632 0.0
652 1 -30.06812248 -51.53894156 0.0
653 1 -23.9135936 -29.53704648 0.0
654 1 -42.79795584 4.0215876 0.0
655 1 -51.561666944 -52.077382592 0.0
656 1 20.21928888 29.98104936 0.0
657 1 26.6430908 2.37840344 0.0
658 1 -38.52950544 2.43699688 0.0
659 1 -26.32701304 18.35211904 0.0
660 1 -56.8832002 -7.77810408 0.0
661 1 -51.288962336 5.09564504 0.0
662 1 41.41972608 26.7738172 0.0
663 1 -57.165674272 -4.46827504 0.0
664 1 36.2199668 9.24294008 0.0
665 1 -17.71646192 -1.81417896 0.0
666 1 -35.9159112 -31.25668224 0.0
667 1 -34.0215456 -10.078772 0.0
668 1 25.87705744 -52.343445832 0.0
669 1 55.51763456 32.97876912 0.0
670 1 -42.23606576 -5.45385872 0.0
671 1 2.44189912 -41.58103312 0.0
672 1 53.40021704 43.85135384 0.0
673 1 -40.6705004 7.85093736 0.0
674 1 -44.98633912 5.22882256 0.0
675 1 41.66880656 15.61841992 0.0
676 1 -48.427279736 6.7137344 0.0
677 1 -36.81733976 -13.64165 0.0
678 1 -44.91070456 -48.351224984 0.0
679 1 -33.7239096 -54.740034248 0.0
680 1 -12.20681104 -34.01232472 0.0
681 1 54.12691576 -7.19473752 0.0
682 1 -35.69904544 -19.10858136 0.0
683 1 -19.9200188 -21.13005504 0.0
684 1 46.10755144 -9.46295728 0.0
685 1 -53.48746524 18.28605552 0.0
686 1 32.80672384 26.07034576 0.0
687 1 -22.258504 -31.39966424 0.0
688 1 15.07147 49.1647984 0.0
689 1 -40.40834728 27.87588744 0.0
690 1 25.58047192 34.5532052 0.0
691 1 -30.3221052 -11.56496776 0.0
692 1 -36.30832384 -24.98881824 0.0
693 1 -57.7022571216 -47.907152072 0.0
694 1 -45.87002624 -57.15825088 0.0
695 1 -9.77424952 -48.18189928 0.0
696 1 -22.7393904 -57.5006875176 0.0
697 1 49.11262456 -44.2713124 0.0
698 1 -46.2742276 -13.5897096 0.0
699 1 44.93871736 -40.0828152 0.0
700 1 -55.614535504 15.1344988 0.0
701 1 -57.3669147256 11.18609464 0.0
702 1 44.57268344 -2.50224336 0.0
703 1 -43.20577552 -51.723312472 0.0
704 1 -49.773411496 -2.0256756 0.0
705 1 -14.25944896 9.20022056 0.0
706 1 11.77424672 50.0396148 0.0
707 1 -29.62657072 -23.0364428 0.0
708 1 46.67119232 -5.17279696 0.0
709 1 -34.30377456 -21.11908336 0.0
710 1 58.33688944 23.66859832 0.0
711 1 47.27533504 37.18909296 0.0
712 1 -39.39510096 -44.8444076 0.0
713 1 -50.42006364 -5.23384152 0.0
714 1 -36.58506696 -40.6897592 0.0
715 1 -26.82237272 -5.02467928 0.0
716 1 -43.75470968 6.12709968 0.0
717 1 50.50205944 19.09048976 0.0
718 1 1.15342704 -11.01848472 0.0
719 1 -46.18913872 2.75319136 0.0
720 1 29.1694952 4.63238336 0.0
721 1 -42.92634784 19.98514856 0.0
722 1 -47.871272344 -2.25689792 0.0
723 1 -48.522266472 -19.88173464 0.0
724 1 12.98883504 42.96860048 0.0
725 1 33.82440552 26.8298428 0.0
726 1 -49.295489784 -5.37355536 0.0
727 1 34.03823656 14.22898504 0.0
728 1 -55.079420992 13.24748656 0.0
729 1 -31.85662304 -9.9573832 0.0
730 1 46.97022896 -18.82740288 0.0
731 1 57.85950464 26.70752024 0.0
732 1 24.16022296 -57.5605543728 0.0
733 1 -45.49442128 23.68844072 0.0
734 1 -53.078279936 -0.20285936 0.0
735 1 48.66383616 -12.81375504 0.0
736 1 -45.37221544 13.0329552 0.0
737 1 -19.61432912 11.86528832 0.0
738 1 -44.3862816 7.99076792 0.0
739 1 34.73365432 -6.28338776 0.0
740 1 -37.38261472 -10.09196136 0.0
741 1 -44.5473552 -8.82776704 0.0
742 1 -17.7636168 -17.62962224 0.0
743 1 -53.009170024 -30.1155108 0.0
744 1 -52.78790392 21.91674784 0.0
745 1 -25.55724464 -32.22335728 0.0
746 1 40.77181336 32.00567448 0.0
747 1 51.7874968 18.8543652 0.0
748 1 -40.86577296 -40.262564 0.0
749 1 45.08111576 13.7221868 0.0
750 1 52.19333224 -28.75724016 0.0
751 1 -44.75068144 31.98163016 0.0
752 1 -19.14978352 24.43194712 0.0
753 1 -51.688740008 -57.9436025672 0.0
754 1 45.28374168 -21.02745816 0.0
755 1 -43.70592072 -52.752549432 0.0
756 1 39.60204552 33.0335108 0.0
757 1 56.96671336 -5.04907376 0.0
758 1 -58.342002593 13.82945248 0.0
759 1 -36.30143736 -41.83023032 0.0
760 1 55.14343024 -18.53910448 0.0
761 1 34.93382912 -10.33695664 0.0
762 1 -54.62735276 32.17655256 0.0
763 1 -37.66997936 -4.61896056 0.0
764 1 -19.69381544 -49.912296624 0.0
765 1 -38.16347152 -3.3796276 0.0
766 1 -43.4659444 -8.05869896 0.0
767 1 -37.15010848 30.1528612 0.0
768 1 54.21573968 44.74496216 0.0
769 1 -2.09605776 24.327366 0.0
770 1 -25.81332832 -21.80948216 0.0
771 1 9.89575504 -55.120121256 0.0
772 1 -22.65920376 -33.94952936 0.0
773 1 -46.76165032 -57.8935086776 0.0
774 1 -9.95586584 46.4323832 0.0
775 1 -17.7490268 -29.78274208 0.0
776 1 -55.082362336 -13.55014152 0.0
777 1 38.7154404 39.00047064 0.0
778 1 -54.700232728 23.74890168 0.0
779 1 48.48478768 -9.49412152 0.0
780 1 -50.478960552 52.79584088 0.0
781 1 -40.42083632 -15.72591904 0.0
782 1 -49.391095136 -4.266116 0.0
783 1 52.01299984 -37.98617384 0.0
784 1 -16.82682208 30.6028168 0.0
785 1 53.14810184 9.12155128 0.0
786 1 -53.628439656 -32.72735424 0.0
787 1 -29.53798024 1.57560328 0.0
788 1 -33.61641048 -13.86668616 0.0
789 1 35.82463616 17.96215752 0.0
790 1 -56.381257512 7.84405088 0.0
791 1 -44.8047228 -25.30384552 0.0
792 1 -14.6471928 -16.00744768 0.0
793 1 54.95842904 -8.81142624 0.0
794 1 46.41802664 1.65952496 0.0
795 1 -27.83503544 13.00856072 0.0
796 1 -21.01531928 5.28543176 0.0
797 1 -20.1563768 23.91931288 0.0
798 1 -48.509742416 -27.7291704 0.0
799 1 -45.12780376 -22.40241976 0.0
800 1 40.06752488 -9.8791808 0.0
801 1 -46.727579752 44.7539496 0.0
802 1 -22.6559356 -11.0959868 0.0
803 1 -33.39254152 3.2751632 0.0
804 1 26.50022552 10.09651344 0.0
805 1 -19.1204868 34.53768144 0.0
806 1 -43.83197832 9.40366352 0.0
807 1 -41.05777736 3.44370688 0.0
808 1 57.05495368 -6.6507056 0.0
809 1 -16.74313384 -37.5278144 0.0
810 1 16.5328044 -6.12056336 0.0
811 1 39.4326848 11.71238512 0.0
812 1 -21.0522028 37.5097228 0.0
813 1 -35.05883624 -6.9174108 0.0
814 1 -42.68263648 -45.71210408 0.0
815 1 46.02071176 3.44359016 0.0
816 1 -44.23944784 -37.3451476 0.0
817 1 -29.73430328 -17.8745008 0.0
818 1 -30.8047424 -23.08674912 0.0
819 1 -41.31747936 -41.93469472 0.0
820 1 48.97209368 -14.14226208 0.0
821 1 -56.024234376 4.6518756 0.0
822 1 -46.956000792 51.48740968 0.0
823 1 -45.3702312 -0.78109024 0.0
824 1 -53.804278336 9.52108384 0.0
825 1 48.812304 -10.8018524 0.0
826 1 -19.93379176 -0.99457112 0.0
827 1 -13.25495664 -6.65665832 0.0
828 1 -13.21165352 -3.97536648 0.0
829 1 -39.21080008 -8.81691208 0.0
830 1 -50.556929512 32.53476624 0.0
831 1 56.82793328 -49.29499956 0.0
832 1 44.34741384 -22.11167024 0.0
833 1 21.45500352 -38.10802952 0.0
834 1 -49.69494064 -23.16938688 0.0
835 1 -39.798602 -16.7936736 0.0
836 1 33.57135656 -6.60086616 0.0
837 1 -53.24422076 -23.65727648 0.0
838 1 -39.12932952 -4.34922064 0.0
839 1 21.6538944 18.98053952 0.0
840 1 -52.834195072 25.0171812 0.0
841 1 -29.58513512 -33.34993872 0.0
842 1 -48.847063216 -0.30744048 0.0
843 1 -28.04536488 24.40685232 0.0
844 1 35.31270224 36.4073024 0.0
845 1 -2.15955344 45.25946392 0.0
846 1 -36.78477488 -53.152350448 0.0
847 1 -37.98488992 56.49119608 0.0
848 1 -56.181141072 -3.45304448 0.0
849 1 30.7020288 -30.26129408 0.0
850 1 -25.76395576 -48.637224 0.0
851 1 -44.65963984 -15.710512 0.0
852 1 -19.2990684 -3.59042392 0.0
853 1 -32.07897464 -51.59531732 0.0
854 1 -10.09884784 21.81333392 0.0
855 1 -27.05231112 -52.179244136 0.0
856 1 -32.9127056 -24.0203924 0.0
857 1 56.18060416 26.72082632 0.0
858 1 -34.09718016 40.8327412 0.0
859 1 -22.09836416 -20.69900808 0.0
860 1 -9.0393804 -46.05584448 0.0
861 1 56.7504312 -33.06946056 0.0