ITEM: TIMESTEP
0
ITEM: NUMBER OF ATOMS
9945
ITEM: BOX BOUNDS pp pp pp
-5.8359999999999999e+01 5.8359999999999999e+01
-5.8359999999999999e+01 5.8359999999999999e+01
-5.0000000000000000e-01 5.0000000000000000e-01
ITEM: ATOMS id type xs ys zs c_002[1] c_002[2]
1 1 0.142144 0.327491 0.5 0.490531 0.52131
2 1 0.470906 0.669089 0.5 0.830105 0.295838
3 1 0.317076 0.107127 0.5 0.0763878 0.292667
4 1 0.151365 0.329023 0.5 0.746123 0.637428
5 1 0.646916 0.79848 0.5 0.47353 0.524928
6 1 0.0987908 0.346568 0.5 0.70677 -0.00993169
7 1 0.159058 0.347628 0.5 0.731882 0.0777817
8 1 0.396176 0.268725 0.5 0.559659 -0.633408
9 1 0.402941 0.201321 0.5 0.58363 0.148595
10 1 0.870438 0.0157321 0.5 -0.164504 0.0491504
11 1 0.820104 0.98298 0.5 0.327853 0.377613
12 1 0.180879 0.551334 0.5 -0.0870765 -0.389367
13 1 0.512691 0.022481 0.5 0.488397 0.52645
14 1 0.528841 0.293232 0.5 0.325668 -0.74593
15 1 0.0567681 0.496367 0.5 -0.859066 0.396572
16 1 0.981836 0.240862 0.5 -0.205554 0.755672
17 1 0.0376285 0.407763 0.5 0.505127 0.333846
18 1 0.0811402 0.977162 0.5 0.594656 -0.428987
19 1 0.0817413 0.0901735 0.5 0.156263 0.708567
20 1 0.871024 0.986342 0.5 -0.527639 0.50229
21 1 0.0115721 0.995416 0.5 -0.428092 -0.541371
22 1 0.0585722 0.275859 0.5 -0.149298 -0.0273678
23 1 0.23042 0.797611 0.5 0.319906 0.749847
24 1 0.173915 0.259585 0.5 -0.884696 -0.145779
25 1 0.000751776 0.819756 0.5 -0.829217 -0.243522
26 1 0.267655 0.0570123 0.5 0.216534 0.6021
27 1 0.954038 0.170283 0.5 -0.730437 0.225442
28 1 0.236094 0.284857 0.5 -0.832851 -0.252427
29 1 0.232053 0.161213 0.5 0.461288 0.580858
30 1 0.301318 0.229836 0.5 -0.0639317 -0.768603
31 1 0.315998 0.415316 0.5 0.0104793 0.884858
32 1 0.266147 0.993963 0.5 0.258992 0.701121
33 1 0.17495 0.0342873 0.5 0.0170301 0.95763
34 1 0.201065 0.165511 0.5 0.286351 0.707911
35 1 0.246287 0.145956 0.5 0.254134 0.759154
36 1 0.258658 0.434554 0.5 -0.46971 -0.758161
37 1 0.564398 0.0511769 0.5 0.180866 -0.465213
38 1 0.22986 0.229149 0.5 0.825744 -0.0912592
39 1 0.0191615 0.416608 0.5 0.166264 -0.513843
40 1 0.39082 0.161074 0.5 0.944058 0.0735745
41 1 0.000386497 0.276638 0.5 -0.374859 0.281766
42 1 0.975594 0.0681974 0.5 0.304953 0.524335
43 1 0.322716 0.208239 0.5 0.209607 -0.742401
44 1 0.493059 0.16982 0.5 0.618604 0.672649
45 1 0.71924 0.938421 0.5 -0.745529 -0.448496
46 1 0.0600222 0.164674 0.5 0.47301 0.0411437
47 1 0.527099 0.1344 0.5 0.88859 0.284162
48 1 0.367118 0.332112 0.5 0.0649085 -0.617545
49 1 0.82577 0.942115 0.5 -0.345292 0.796388
50 1 0.765669 0.889746 0.5 0.0396982 0.368767
51 1 0.805785 0.192995 0.5 0.839152 -0.208764
52 1 0.225668 0.238405 0.5 0.579429 -0.508585
53 1 0.0370699 0.382513 0.5 -0.169697 0.54591
54 1 0.0496057 0.0560113 0.5 0.731289 -0.0571994
55 1 0.237142 0.956404 0.5 0.234814 0.356721
56 1 0.110775 0.900049 0.5 0.61473 0.66917
57 1 0.178887 0.371496 0.5 -0.494227 0.0413363
58 1 0.900541 0.032934 0.5 0.593323 -0.573138
59 1 0.258347 0.0830423 0.5 0.614012 0.732478
60 1 0.837466 0.152189 0.5 0.657258 -0.538166
61 1 0.383157 0.311214 0.5 -0.165028 -0.841744
62 1 0.860766 0.99694 0.5 0.229791 0.362676
63 1 0.43346 0.981304 0.5 -0.24594 -0.240821
64 1 0.961514 0.208716 0.5 -0.53846 0.120969
65 1 0.970317 0.985505 0.5 0.159273 0.135892
66 1 0.101116 0.301198 0.5 0.56511 -0.746357
67 1 0.316319 0.943834 0.5 0.688124 0.435895
68 1 0.565954 0.997805 0.5 0.208141 -0.0105815
69 1 0.0731387 0.124749 0.5 0.00188286 -0.527227
70 1 0.262887 0.921581 0.5 0.428163 0.746857
71 1 0.803517 0.300957 0.5 0.511096 0.490493
72 1 0.907704 0.155583 0.5 -0.270882 0.000923679
73 1 0.281251 0.366507 0.5 -0.0165087 -0.808926
74 1 0.366408 0.206375 0.5 0.834956 0.165771
75 1 0.212216 0.93993 0.5 0.317312 0.736361
76 1 0.635069 0.973532 0.5 -0.197333 0.166757
77 1 0.0984519 0.0649628 0.5 -0.469763 0.553404
78 1 0.181345 0.123407 0.5 0.321671 0.617223
79 1 0.672972 0.823961 0.5 -0.0698533 -0.221453
80 1 0.0570448 0.295891 0.5 -0.643328 -0.652859
81 1 0.741045 0.814122 0.5 0.217389 -0.915588
82 1 0.178606 0.227922 0.5 0.372464 0.654252
83 1 0.915111 0.911071 0.5 -0.443644 -0.709994
84 1 0.716745 0.0860835 0.5 0.29123 -0.370153
85 1 0.375853 0.169769 0.5 0.919163 -0.215882
86 1 0.0657677 0.680586 0.5 -0.628116 -0.168064
87 1 0.014467 0.147717 0.5 0.436078 0.797273
88 1 0.111224 0.140274 0.5 0.162308 0.471006
89 1 0.187989 0.228558 0.5 -0.135563 0.497589
90 1 0.95272 0.149615 0.5 -0.406112 -0.0819431
91 1 0.18296 0.181721 0.5 -0.00970707 0.452317
92 1 0.997603 0.266208 0.5 0.180404 0.570544
93 1 0.170293 0.951452 0.5 0.00227753 0.779101
94 1 0.048235 0.118431 0.5 -0.314165 0.447199
95 1 0.918938 0.194165 0.5 -0.167308 0.716861
96 1 0.37352 0.233675 0.5 0.371461 0.427486
97 1 0.223308 0.41578 0.5 -0.456126 -0.534073
98 1 0.00861931 0.825602 0.5 -0.871078 -0.263699
99 1 0.92242 0.0614545 0.5 -0.310423 0.358688
100 1 0.16367 0.0997433 0.5 0.171194 0.894642
101 1 0.255958 0.0168337 0.5 -0.0491008 0.870575
102 1 0.879037 0.943393 0.5 0.388415 0.461796
103 1 0.278672 0.682658 0.5 0.145532 0.219158
104 1 0.0768409 0.230437 0.5 -0.01065 -0.689968
105 1 0.09069 0.255797 0.5 0.912028 0.0668823
106 1 0.406557 0.32463 0.5 0.504184 -0.794742
107 1 0.931268 0.0163054 0.5 0.293542 0.310315
108 1 0.953515 0.106212 0.5 0.167328 -0.428432
109 1 0.272268 0.0132223 0.5 0.476253 0.564095
110 1 0.418845 0.0982739 0.5 0.720751 -0.189404
111 1 0.56252 0.252497 0.5 0.241869 0.0963987
112 1 0.169728 0.3673 0.5 -0.281917 0.590935
113 1 0.899967 0.148857 0.5 -0.593661 -0.0495615
114 1 0.667292 0.0359146 0.5 -0.262771 0.125662
115 1 0.990668 0.902313 0.5 -0.821813 0.373229
116 1 0.0434315 0.210323 0.5 -0.470261 -0.425856
117 1 0.169739 0.302976 0.5 0.349002 -0.453797
118 1 0.130619 0.0535413 0.5 0.499111 0.143079
119 1 0.785698 0.968872 0.5 0.361729 0.531288
120 1 0.964776 0.761119 0.5 -0.147134 -0.258919
121 1 0.192461 0.276104 0.5 0.729496 0.550275
122 1 0.0331996 0.37258 0.5 -0.174321 -0.0657506
123 1 0.663513 0.0651595 0.5 -0.669298 0.293292
124 1 0.909926 0.199145 0.5 -0.0702417 0.407704
125 1 0.0131358 0.251414 0.5 -0.70457 0.610208
126 1 0.0350572 0.839481 0.5 0.576051 -0.104188
127 1 0.198791 0.363936 0.5 -0.253236 -0.609962
128 1 0.956443 0.0454608 0.5 0.432061 0.433002
129 1 0.0670094 0.989831 0.5 0.875166 0.226068
130 1 0.341843 0.077008 0.5 0.626774 0.400274
131 1 0.283469 0.41564 0.5 -0.388961 -0.607576
132 1 0.159956 0.304836 0.5 0.133031 -0.468474
133 1 0.700611 0.986999 0.5 -0.325059 0.80485
134 1 0.238413 0.992263 0.5 0.177641 0.4605
135 1 0.701156 0.0560785 0.5 0.219264 0.512118
136 1 0.331411 0.791086 0.5 -0.582879 -0.254936
137 1 0.60917 0.988041 0.5 -0.426026 0.769169
138 1 0.232089 0.131133 0.5 0.254627 0.668022
139 1 0.227778 0.152538 0.5 0.180194 0.523331
140 1 0.0867402 0.285021 0.5 0.0442345 -0.802469
141 1 0.00344711 0.127011 0.5 0.714301 -0.139027
142 1 0.26318 0.140307 0.5 0.183793 0.678184
143 1 0.966304 0.095601 0.5 0.313166 -0.723332
144 1 0.807538 0.210562 0.5 0.852703 0.220845
145 1 0.991817 0.963377 0.5 -0.581288 0.323354
146 1 0.0560846 0.78673 0.5 -0.667473 -0.286165
147 1 0.278291 0.260368 0.5 0.572027 -0.0434795
148 1 0.499114 0.160406 0.5 0.851839 0.224003
149 1 0.069799 0.16748 0.5 -0.112831 0.375982
150 1 0.17325 0.17978 0.5 -0.121917 0.819035
151 1 0.258953 0.383581 0.5 -0.456948 -0.670524
152 1 0.022886 0.130436 0.5 0.293359 0.10348
153 1 0.159188 0.156145 0.5 -0.26644 0.841309
154 1 0.842742 0.143329 0.5 0.398797 -0.239406
155 1 0.138317 0.979108 0.5 0.272737 0.871476
156 1 0.491446 0.243727 0.5 0.530071 -0.283406
157 1 0.792219 0.959482 0.5 0.218199 0.884757
158 1 0.408269 0.225772 0.5 0.628213 -0.253988
159 1 0.891524 0.035688 0.5 0.266105 -0.76427
160 1 0.90596 0.679702 0.5 -0.716036 -0.275007
161 1 0.656848 0.079247 0.5 -0.668342 0.24679
162 1 0.779628 0.0076898 0.5 -0.0296456 0.168167
163 1 0.988193 0.709697 0.5 -0.622997 -0.524147
164 1 0.91605 0.983338 0.5 -0.409736 0.866632
165 1 0.972449 0.813175 0.5 -0.871576 -0.399756
166 1 0.097664 0.00763531 0.5 0.0137583 0.299201
167 1 0.492453 0.282283 0.5 0.81168 0.561778
168 1 0.817014 0.886787 0.5 -0.483282 0.489566
169 1 0.331409 0.234681 0.5 0.779444 -0.48116
170 1 0.791452 0.103224 0.5 0.277143 0.565375
171 1 0.273295 0.335279 0.5 -0.662984 -0.0737623
172 1 0.879469 0.147778 0.5 0.136921 -0.548256
173 1 0.202963 0.0942228 0.5 0.611717 0.301065
174 1 0.672346 0.742308 0.5 0.628048 -0.270772
175 1 0.0580852 0.893987 0.5 -0.922997 -0.232579
176 1 0.400873 0.934677 0.5 0.712688 0.498522
177 1 0.149769 0.27445 0.5 -0.0916226 -0.0795039
178 1 0.126105 0.00405733 0.5 -0.397161 0.814316
179 1 0.0440196 0.961222 0.5 -0.814294 -0.19947
180 1 0.168108 0.22704 0.5 0.322403 0.694661
181 1 0.0522111 0.0922183 0.5 -0.860386 0.297113
182 1 0.184973 0.998276 0.5 -0.0108888 0.949367
183 1 0.919843 0.0519525 0.5 0.430434 0.834273
184 1 0.318865 0.253429 0.5 0.853304 -0.297368
185 1 0.164854 0.91431 0.5 0.480895 0.752851
186 1 0.811825 0.220486 0.5 0.753103 0.508601
187 1 0.940694 0.943108 0.5 0.282353 -0.21324
188 1 0.0765506 0.212205 0.5 0.20844 0.515258
189 1 0.274662 0.323964 0.5 -0.729156 -0.467666
190 1 0.207247 0.19322 0.5 0.689924 0.373019
191 1 0.89703 0.0447704 0.5 -0.252075 -0.494827
192 1 0.607392 0.0795038 0.5 0.698529 -0.504771
193 1 0.616343 0.962517 0.5 -0.421378 -0.208684
194 1 0.475328 0.338645 0.5 0.481085 0.651393
195 1 0.901157 0.114942 0.5 -0.111974 0.435586
196 1 0.404433 0.454973 0.5 -0.482192 -0.627322
197 1 0.114037 0.238951 0.5 -0.0154881 0.486363
198 1 0.146892 0.246523 0.5 0.339673 -0.232912
199 1 0.991238 0.242306 0.5 -0.347514 0.527525
200 1 0.316662 0.182028 0.5 0.540344 0.579035
201 1 0.159169 0.72332 0.5 0.600249 0.585325
202 1 0.0652588 0.245259 0.5 0.614016 -0.419644
203 1 0.141916 0.197152 0.5 0.153 0.728553
204 1 0.888968 0.791693 0.5 -0.0748267 0.261989
205 1 0.36035 0.162834 0.5 0.856414 -0.39385
206 1 0.314488 0.201937 0.5 0.262885 -0.158538
207 1 0.73491 0.864436 0.5 -0.951866 -0.0712027
208 1 0.690572 0.981881 0.5 0.245198 0.331781
209 1 0.847103 0.056424 0.5 0.128283 -0.32211
210 1 0.188509 0.424694 0.5 0.661922 -0.267149
211 1 0.25776 0.120971 0.5 -0.20063 0.778894
212 1 0.710635 0.99116 0.5 0.165027 0.160267
213 1 0.868969 0.915036 0.5 0.29374 -0.417896
214 1 0.125624 0.213762 0.5 -0.392486 0.68742
215 1 0.525435 0.0247813 0.5 -0.13983 -0.0286278
216 1 0.110883 0.507765 0.5 -0.296782 0.540802
217 1 0.878193 0.0212643 0.5 -0.435651 -0.848101
218 1 0.677141 0.139782 0.5 -0.663169 -0.31778
219 1 0.151367 0.165368 0.5 -0.0613569 0.318235
220 1 0.926441 0.0440217 0.5 0.76948 0.241952
221 1 0.929799 0.873397 0.5 -0.761144 -0.373662
222 1 0.166584 0.217629 0.5 0.151734 0.709761
223 1 0.00593882 0.190681 0.5 0.316736 0.465222
224 1 0.927872 0.154206 0.5 -0.335729 0.214588
225 1 0.769461 0.821301 0.5 0.38058 -0.349782
226 1 0.261581 0.248645 0.5 0.842659 -0.405611
227 1 0.918659 0.899297 0.5 -0.39684 -0.654784
228 1 0.853463 0.238783 0.5 0.593136 -0.115853
229 1 0.0924905 0.116723 0.5 -0.327141 0.121904
230 1 0.121487 0.153473 0.5 -0.0687083 0.815281
231 1 0.0811743 0.743859 0.5 -0.616618 -0.32177
232 1 0.270874 0.0663519 0.5 0.104183 0.928119
233 1 0.203859 0.215227 0.5 -0.48148 0.332729
234 1 0.996599 0.156772 0.5 0.422407 -0.150554
235 1 0.00912483 0.0852107 0.5 0.148046 0.80909
236 1 0.551112 0.946254 0.5 -0.0222615 0.431878
237 1 0.753908 0.136552 0.5 -0.294393 0.468581
238 1 0.304054 0.265099 0.5 -0.0884838 -0.53433
239 1 0.110345 0.0832533 0.5 -0.744303 0.0551584
240 1 0.437076 0.363576 0.5 0.510676 0.310557
241 1 0.998924 0.136441 0.5 0.712437 -0.146362
242 1 0.969231 0.0313679 0.5 0.516183 0.767656
243 1 0.208557 0.11956 0.5 0.0219125 0.553994
244 1 0.186046 0.191884 0.5 0.592678 0.765288
245 1 0.122439 0.985522 0.5 0.171934 0.715429
246 1 0.119541 0.822275 0.5 0.489402 -0.27354
247 1 0.981492 0.194898 0.5 -0.854188 -0.344854
248 1 0.835266 0.0294923 0.5 0.436191 -0.132061
249 1 0.290711 0.345971 0.5 -0.122881 0.24921
250 1 0.197207 0.102881 0.5 0.61056 0.171726
251 1 0.0689864 0.86579 0.5 -0.286184 0.437643
252 1 0.625877 0.0433464 0.5 -0.802165 0.0641386
253 1 0.119258 0.106283 0.5 -0.11204 0.433156
254 1 0.407862 0.169259 0.5 0.569179 -0.383969
255 1 0.155047 0.338507 0.5 0.709461 0.412659
256 1 0.962866 0.13369 0.5 -0.756652 0.0248459
257 1 0.134946 0.205552 0.5 -0.100423 0.680306
258 1 0.241945 0.428855 0.5 0.0324122 -0.908285
259 1 0.051398 0.979524 0.5 0.0915202 -0.472107
260 1 0.0274171 0.276673 0.5 0.0282157 0.769363
261 1 0.222645 0.100969 0.5 -0.658317 0.289072
262 1 0.396377 0.171464 0.5 0.769318 -0.00423734
263 1 0.118768 0.116636 0.5 -0.330912 0.185847
264 1 0.014084 0.843721 0.5 -0.180123 -0.735731
265 1 0.139271 0.227503 0.5 0.252402 0.658441
266 1 0.0323145 0.399837 0.5 0.305517 0.6602
267 1 0.248196 0.0821707 0.5 0.657447 0.387127
268 1 0.0855801 0.916003 0.5 0.189192 0.078784
269 1 0.919436 0.10427 0.5 -0.721125 -0.0293815
270 1 0.133742 0.243672 0.5 0.420231 0.306503
271 1 0.241748 0.250028 0.5 0.813391 -0.121312
272 1 0.0410918 0.259478 0.5 0.67717 0.00730429
273 1 0.0811634 0.0704592 0.5 0.202852 0.489384
274 1 0.921352 0.0139892 0.5 0.546593 0.69711
275 1 0.966101 0.0679371 0.5 0.382255 0.377443
276 1 0.32739 0.354639 0.5 -0.0233516 -0.453029
277 1 0.153833 0.215403 0.5 -0.152098 0.0348997
278 1 0.0825415 0.941151 0.5 0.612264 -0.209847
279 1 0.21591 0.812213 0.5 0.451238 0.734675
280 1 0.170959 0.16878 0.5 -0.293501 0.815758
281 1 0.853909 0.906456 0.5 -0.243438 -0.145005
282 1 0.829327 0.102672 0.5 -0.279561 0.827702
283 1 0.306702 0.179219 0.5 0.486019 0.358163
284 1 0.0998618 0.188015 0.5 0.0125908 0.289853
285 1 0.798757 0.717643 0.5 -0.336434 -0.503214
286 1 0.158158 0.183982 0.5 -0.317073 0.567388
287 1 0.361193 0.232447 0.5 0.772607 0.0222215
288 1 0.170637 0.325843 0.5 0.183801 -0.570218
289 1 0.410398 0.190112 0.5 0.0709415 -0.301231
290 1 0.97182 0.130831 0.5 0.518152 -0.258983
291 1 0.989652 0.507264 0.5 -0.508754 0.571005
292 1 0.449771 0.116847 0.5 0.729349 -0.264554
293 1 0.141742 0.15789 0.5 -0.475367 0.383446
294 1 0.66183 0.873971 0.5 0.0836631 0.727682
295 1 0.971616 0.236175 0.5 -0.649752 0.289454
296 1 0.795465 0.283206 0.5 0.602758 -0.606575
297 1 0.698181 0.851727 0.5 0.0156299 -0.513113
298 1 0.14692 0.180534 0.5 -0.134866 0.890165
299 1 0.0973081 0.0553889 0.5 -0.313846 0.810659
300 1 0.778756 0.0179694 0.5 0.293755 -0.063711
301 1 0.345839 0.244804 0.5 0.769266 0.23398
302 1 0.918013 0.00450192 0.5 -0.0336937 0.410492
303 1 0.0807269 0.256176 0.5 0.493251 0.405227
304 1 0.459958 0.0557882 0.5 -0.409484 -0.299119
305 1 0.401322 0.162272 0.5 0.74183 -0.244837
306 1 0.822145 0.201143 0.5 0.83816 -0.526577
307 1 0.0692134 0.139647 0.5 -0.290956 0.326482
308 1 0.547623 0.115375 0.5 0.664196 -0.483431
309 1 0.39595 0.152814 0.5 0.943883 -0.104419
310 1 0.0487142 0.236646 0.5 -0.202639 -0.640008
311 1 0.958814 0.0849152 0.5 -0.535609 0.141899
312 1 0.284432 0.268815 0.5 0.441525 -0.516477
313 1 0.948732 0.669017 0.5 -0.509708 -0.330295
314 1 0.0802261 0.182688 0.5 0.560435 0.504172
315 1 0.912059 0.5168 0.5 -0.811099 0.295143
316 1 0.0308603 0.259175 0.5 -0.0020227 0.18001
317 1 0.981895 0.280369 0.5 0.586452 0.522299
318 1 0.886828 0.31128 0.5 0.463767 0.737635
319 1 0.0106695 0.181817 0.5 0.33627 0.09202
320 1 0.917894 0.239591 0.5 -0.123874 0.244988
321 1 0.177613 0.425217 0.5 0.619977 -0.709224
322 1 0.132466 0.32625 0.5 0.0393828 -0.208926
323 1 0.944604 0.313933 0.5 0.228383 0.838654
324 1 0.866523 0.639862 0.5 -0.825858 -0.510987
325 1 0.0405719 0.596634 0.5 -0.120753 0.667282
326 1 0.203601 0.079857 0.5 0.00766902 0.376898
327 1 0.697813 0.172031 0.5 -0.775525 0.537846
328 1 0.0950137 0.246791 0.5 0.642611 0.249817
329 1 0.786492 0.210473 0.5 0.941797 -0.021486
330 1 0.97623 0.158582 0.5 -0.412086 -0.148761
331 1 0.256941 0.444217 0.5 -0.54326 -0.803423
332 1 0.974207 0.256144 0.5 -0.882295 0.371777
333 1 0.72978 0.25497 0.5 0.696007 -0.687511
334 1 0.0370611 0.196091 0.5 -0.407232 -0.564449
335 1 0.0727614 0.38193 0.5 -0.347874 0.659982
336 1 0.345508 0.26225 0.5 0.87235 0.0630406
337 1 0.012437 0.9855 0.5 -0.870608 -0.306364
338 1 0.776182 0.0553392 0.5 0.20785 -0.245417
339 1 0.223637 0.471283 0.5 -0.294137 -0.269524
340 1 0.345154 0.282075 0.5 0.48782 0.187099
341 1 0.962907 0.241026 0.5 -0.821341 0.0846395
342 1 0.197821 0.400898 0.5 -0.267355 -0.632824
343 1 0.30137 0.170647 0.5 0.934732 0.246143
344 1 0.92633 0.167978 0.5 -0.439321 0.305838
345 1 0.0614814 0.333214 0.5 -0.629824 -0.681338
346 1 0.946061 0.241583 0.5 -0.69119 0.650471
347 1 0.993315 0.294454 0.5 -0.427988 0.200556
348 1 0.131183 0.233714 0.5 0.0539598 0.824705
349 1 0.745368 0.0513701 0.5 -0.323421 0.926969
350 1 0.236229 0.305031 0.5 -0.808193 0.167757
351 1 0.752122 0.309921 0.5 -0.725659 -0.299535
352 1 0.0808987 0.220609 0.5 0.471828 -0.337692
353 1 0.464901 0.198666 0.5 0.838264 0.0715362
354 1 0.00266521 0.980228 0.5 -0.764265 -0.459886
355 1 0.979918 0.423847 0.5 -0.401745 0.579664
356 1 0.0900546 0.183285 0.5 -0.0757393 0.309369
357 1 0.788419 0.414037 0.5 -0.926919 -0.0977087
358 1 0.381282 0.32119 0.5 0.348617 -0.666165
359 1 0.127778 0.225028 0.5 -0.115011 0.828717
360 1 0.165226 0.252149 0.5 -0.458039 -0.741423
361 1 0.136655 0.434278 0.5 -0.0510195 -0.525714
362 1 0.0775322 0.289579 0.5 0.0854956 -0.588915
363 1 0.84944 0.209787 0.5 0.937366 0.122024
364 1 0.016896 0.0500921 0.5 0.0230875 0.57137
365 1 0.81261 0.147645 0.5 0.622451 0.12582
366 1 0.641098 0.0251047 0.5 0.353406 -0.305819
367 1 0.789743 0.182026 0.5 0.142836 0.535264
368 1 0.177679 0.491333 0.5 0.900574 -0.270293
369 1 0.0321732 0.438932 0.5 -0.357448 0.0896067
370 1 0.848965 0.269907 0.5 0.893729 -0.34541
371 1 0.0518872 0.216204 0.5 -0.216042 -0.395753
372 1 0.392915 0.2522 0.5 -0.194476 -0.591729
373 1 0.0534843 0.0652344 0.5 0.652622 0.222345
374 1 0.769288 0.359462 0.5 -0.153578 0.530396
375 1 0.313025 0.244849 0.5 0.892221 -0.344204
376 1 0.537934 0.1347 0.5 0.85427 0.220539
377 1 0.973862 0.473117 0.5 -0.608225 -0.378244
378 1 0.884149 0.124437 0.5 -0.159656 -0.81315
379 1 0.377237 0.189365 0.5 0.817487 -0.457595
380 1 0.56714 0.242796 0.5 0.859798 -0.183531
381 1 0.779333 0.477716 0.5 -0.327263 -0.0860294
382 1 0.0996528 0.110027 0.5 -0.330986 0.304893
383 1 0.250715 0.672552 0.5 -0.789806 0.489399
384 1 0.0754891 0.309531 0.5 -0.0426797 -0.207007
385 1 0.995621 0.370515 0.5 -0.0223728 0.828785
386 1 0.753079 0.106887 0.5 -0.265851 -0.344596
387 1 0.248942 0.129368 0.5 -0.199437 0.575495
388 1 0.273732 0.398569 0.5 -0.541411 -0.719916
389 1 0.235105 0.0875434 0.5 -0.433379 -0.627189
390 1 0.781496 0.230627 0.5 0.359647 -0.0189086
391 1 0.128674 0.497382 0.5 0.497101 -0.425214
392 1 0.202281 0.640596 0.5 0.528858 0.643747
393 1 0.0920111 0.591971 0.5 -0.18949 0.322031
394 1 0.0895806 0.275096 0.5 0.687496 -0.355969
395 1 0.0223318 0.255046 0.5 -0.721151 0.206344
396 1 0.932519 0.338624 0.5 0.31338 0.866416
397 1 0.998838 0.227836 0.5 -0.66486 0.507254
398 1 0.144913 0.209112 0.5 -0.617392 0.504909
399 1 0.234665 0.182782 0.5 -0.230168 0.317512
400 1 0.982593 0.469293 0.5 -0.705854 -0.561155
401 1 0.521822 0.12486 0.5 0.691549 -0.0320342
402 1 0.103416 0.566061 0.5 -0.656387 0.132753
403 1 0.00657091 0.374076 0.5 -0.156966 0.627909
404 1 0.8858 0.42077 0.5 0.137618 -0.400099
405 1 0.441101 0.353087 0.5 0.680503 -0.27283
406 1 0.116854 0.440919 0.5 0.129692 -0.610869
407 1 0.96438 0.185091 0.5 -0.905644 0.0475068
408 1 0.108153 0.475522 0.5 -0.502385 -0.696724
409 1 0.814809 0.229721 0.5 0.567417 0.0180031
410 1 0.956131 0.376474 0.5 0.0376949 -0.0300123
411 1 0.0696079 0.887463 0.5 -0.450615 -0.0271338
412 1 0.239914 0.33516 0.5 -0.737787 0.160523
413 1 0.094084 0.414758 0.5 0.280333 -0.810166
414 1 0.869458 0.354587 0.5 0.860141 -0.289659
415 1 0.33687 0.289463 0.5 0.0196998 0.794508
416 1 0.194851 0.210518 0.5 0.182977 0.569607
417 1 0.414493 0.26307 0.5 0.401085 -0.00159943
418 1 0.256879 0.324637 0.5 -0.496122 0.547371
419 1 0.665159 0.940172 0.5 0.0413561 0.623987
420 1 0.037266 0.424832 0.5 0.532195 0.224084
421 1 0.313956 0.433574 0.5 0.124219 -0.541747
422 1 0.263264 0.461665 0.5 -0.556148 -0.794194
423 1 0.72177 0.153476 0.5 -0.797796 0.551968
424 1 0.853634 0.261481 0.5 0.289046 0.228879
425 1 0.0517133 0.226039 0.5 -0.183071 -0.324792
426 1 0.702745 0.406581 0.5 0.178355 -0.708623
427 1 0.832215 0.200252 0.5 0.732159 -0.546153
428 1 0.204589 0.520004 0.5 -0.0644337 -0.0887688
429 1 0.927826 0.234092 0.5 -0.576154 -0.00528576
430 1 0.297147 0.238443 0.5 0.253472 -0.647921
431 1 0.989682 0.48705 0.5 -0.725124 -0.0801928
432 1 0.346109 0.375951 0.5 -0.535995 0.592078
433 1 0.535289 0.0978308 0.5 0.908333 -0.366756
434 1 0.770574 0.0777692 0.5 0.150779 -0.524557
435 1 0.0653716 0.388209 0.5 -0.572831 0.699098
436 1 0.192352 0.247389 0.5 -0.60299 0.465279
437 1 0.0641325 0.566954 0.5 -0.444632 0.626194
438 1 0.200361 0.32021 0.5 -0.418049 0.588301
439 1 0.264527 0.212232 0.5 -0.902954 0.318361
440 1 0.691443 0.201533 0.5 0.152441 0.303546
441 1 0.654192 0.912422 0.5 0.489701 0.836838
442 1 0.908964 0.577036 0.5 0.0940504 -0.857935
443 1 0.903654 0.218752 0.5 0.0438346 0.732351
444 1 0.903484 0.22979 0.5 0.381362 0.452477
445 1 0.968058 0.29849 0.5 0.748742 0.371582
446 1 0.218146 0.29524 0.5 -0.708238 0.395839
447 1 0.0826088 0.321352 0.5 0.88061 0.256464
448 1 0.408013 0.378154 0.5 -0.143556 -0.594468
449 1 0.128844 0.456711 0.5 -0.123439 -0.676489
450 1 0.0393234 0.393042 0.5 -0.307187 0.239013
451 1 0.715479 0.884051 0.5 -0.544099 -0.772876
452 1 0.168444 0.357765 0.5 -0.606539 0.159148
453 1 0.0182318 0.520116 0.5 -0.465316 -0.0604658
454 1 0.267738 0.27862 0.5 0.151185 0.164138
455 1 0.113393 0.189913 0.5 -0.00517687 0.684484
456 1 0.087587 0.0314004 0.5 -0.252817 -0.226614
457 1 0.185816 0.407103 0.5 0.230838 -0.255141
458 1 0.88015 0.230905 0.5 0.46617 0.0519567
459 1 0.130018 0.145779 0.5 -0.0277775 0.661618
460 1 0.229374 0.381929 0.5 0.281016 -0.489825
461 1 0.709433 0.847285 0.5 -0.536046 -0.582804
462 1 0.990387 0.387052 0.5 -0.151732 0.703396
463 1 0.101595 0.0968003 0.5 -0.626403 -0.273953
464 1 0.484061 0.0270698 0.5 -0.781954 -0.380466
465 1 0.00510005 0.320052 0.5 -0.0572037 0.238678
466 1 0.997235 0.0266161 0.5 0.46254 0.82476
467 1 0.425509 0.391516 0.5 0.599868 0.568405
468 1 0.420378 0.399596 0.5 0.634137 0.39257
469 1 0.275536 0.115126 0.5 -0.789551 0.450875
470 1 0.7987 0.0197958 0.5 0.178306 0.170307
471 1 0.236093 0.354201 0.5 -0.233122 -0.292016
472 1 0.354939 0.360936 0.5 -0.237258 -0.420714
473 1 0.748564 0.357835 0.5 -0.347496 0.189326
474 1 0.732571 0.075505 0.5 0.172192 0.856849
475 1 0.974574 0.366181 0.5 0.343579 0.75653
476 1 0.957921 0.268227 0.5 -0.256989 0.561131
477 1 0.0434107 0.0981355 0.5 -0.883207 0.250605
478 1 0.764895 0.236382 0.5 -0.0506743 0.802371
479 1 0.736374 0.391709 0.5 0.625449 -0.432489
480 1 0.752075 0.000984491 0.5 0.565695 -0.51878
481 1 0.889292 0.292858 0.5 0.974684 -0.0035869
482 1 0.0539447 0.452818 0.5 0.250894 -0.722012
483 1 0.089658 0.462154 0.5 -0.341259 -0.605233
484 1 0.216838 0.175271 0.5 0.135047 -0.198062
485 1 0.14673 0.348408 0.5 0.603659 0.209738
486 1 0.379574 0.979347 0.5 0.476333 0.553062
487 1 0.82354 0.320796 0.5 0.605016 0.640318
488 1 0.263837 0.316313 0.5 -0.371461 -0.202153
489 1 0.103423 0.319196 0.5 0.827023 -0.50589
490 1 0.983433 0.596395 0.5 0 0
491 1 0.988074 0.212601 0.5 -0.831205 -0.392578
492 1 0.154235 0.125098 0.5 0.203054 0.767181
493 1 0.119464 0.281893 0.5 0.163553 0.118551
494 1 0.883043 0.156996 0.5 0.218524 -0.147372
495 1 0.603402 0.0157988 0.5 -0.498081 0.737894
496 1 0.176433 0.218197 0.5 0.362344 0.786728
497 1 0.85291 0.816255 0.5 -0.334161 0.267021
498 1 0.707569 0.0679257 0.5 0.283046 0.133844
499 1 0.0833667 0.671732 0.5 -0.322577 -0.425273
500 1 0.133152 0.44563 0.5 0.220975 -0.854952
501 1 0.0898763 0.363856 0.5 -0.370722 -0.298103
502 1 0.0210376 0.0589777 0.5 0.252371 0.713855
503 1 0.932998 0.311855 0.5 0.036662 0.811144
504 1 0.248618 0.710413 0.5 0.186405 0.805951
505 1 0.237612 0.590153 0.5 0.456182 0.486484
506 1 0.0321595 0.298355 0.5 -0.16803 0.582384
507 1 0.258506 0.795424 0.5 0.0533938 0.202447
508 1 0.936707 0.202107 0.5 -0.843801 0.34219
509 1 0.132504 0.155758 0.5 -0.0280714 0.968288
510 1 0.496046 0.215264 0.5 0.35292 0.348971
511 1 0.655952 0.316083 0.5 0.558687 -0.442272
512 1 0.679059 0.900015 0.5 -0.251035 0.707098
513 1 0.156849 0.134227 0.5 -0.518298 0.735958
514 1 0.702065 0.0949783 0.5 0.757112 -0.52148
515 1 0.843423 0.531042 0.5 0.488882 -0.162995
516 1 0.401136 0.27728 0.5 0.558096 -0.549332
517 1 0.0217561 0.44732 0.5 0.3617 -0.0788932
518 1 0.712938 0.1491 0.5 -0.858309 0.495009
519 1 0.816541 0.283127 0.5 0.673033 0.558189
520 1 0.637713 0.0912058 0.5 -0.508923 0.471672
521 1 0.100385 0.274429 0.5 0.381082 -0.0126015
522 1 0.990631 0.303984 0.5 -0.38459 0.38997
523 1 0.0396873 0.508567 0.5 -0.707218 -0.0279595
524 1 0.202087 0.910908 0.5 0.534557 0.765628
525 1 0.541854 0.279172 0.5 0.416609 -0.655166
526 1 0.122485 0.245307 0.5 0.214155 0.103068
527 1 0.869889 0.229661 0.5 0.91517 0.0289006
528 1 0.0672943 0.271677 0.5 -0.108711 0.666013
529 1 0.42295 0.362254 0.5 0.106969 0.128646
530 1 0.0154167 0.193319 0.5 -0.0431542 0.541743
531 1 0.0222249 0.731987 0.5 -0.44139 -0.0564897
532 1 0.937831 0.148366 0.5 -0.418103 0.093942
533 1 0.905032 0.190509 0.5 0.473043 0.344707
534 1 0.244715 0.290577 0.5 -0.0218228 -0.262184
535 1 0.854124 0.182498 0.5 0.481609 -0.302747
536 1 0.674026 0.9174 0.5 0.591814 0.609045
537 1 0.471794 0.329215 0.5 0.158257 0.00564023
538 1 0.964204 0.145091 0.5 -0.708308 0.14747
539 1 0.0542025 0.157152 0.5 0.876356 -0.254103
540 1 0.86331 0.163284 0.5 0.509373 -0.0688746
541 1 0.0755996 0.347423 0.5 0.604333 -0.545797
542 1 0.996865 0.352632 0.5 0.542864 0.478306
543 1 0.832836 0.278026 0.5 0.464151 0.598049
544 1 0.235361 0.0779746 0.5 -0.647061 0.323531
545 1 0.899317 0.321652 0.5 0.46842 0.654122
546 1 0.132593 0.677328 0.5 -0.425744 -0.304547
547 1 0.799738 0.27341 0.5 0.80665 -0.204268
548 1 0.98155 0.0586978 0.5 0.457533 0.552482
549 1 0.576259 0.571872 0.5 0.541441 -0.280385
550 1 0.728664 0.0546618 0.5 -0.260732 0.904018
551 1 0.114949 0.21202 0.5 -0.378575 0.685513
552 1 0.214604 0.606548 0.5 0.779538 0.591844
553 1 0.988438 0.0819253 0.5 0.0944209 0.715281
554 1 0.0266216 0.491466 0.5 -0.102348 -0.492327
555 1 0.0544745 0.266076 0.5 0.405635 -0.266582
556 1 0.143351 0.990808 0.5 -0.192263 0.522047
557 1 0.159156 0.0391049 0.5 0.303296 0.494566
558 1 0.0236018 0.564801 0.5 0.0254604 0.424009
559 1 0.0159802 0.553085 0.5 0.421901 -0.641365
560 1 0.142524 0.0935481 0.5 -0.0189975 0.99067
561 1 0.544838 0.0762409 0.5 0.760835 -0.148837
562 1 0.246398 0.553779 0.5 0.575191 0.713163
563 1 0.0261744 0.455781 0.5 -0.179322 0.300426
564 1 0.188828 0.899913 0.5 0.365982 0.805844
565 1 0.0759935 0.603178 0.5 -0.672501 0.586239
566 1 0.186861 0.219175 0.5 0.0435278 0.835305
567 1 0.0829952 0.691445 0.5 -0.547746 -0.789007
568 1 0.674141 0.972939 0.5 0.219075 0.517813
569 1 0.291275 0.294173 0.5 -0.300672 0.2981
570 1 0.691778 0.253085 0.5 0.3622 -0.771971
571 1 0.131055 0.0903544 0.5 -0.181882 0.681257
572 1 0.251673 0.367214 0.5 -0.512637 -0.541796
573 1 0.838935 0.270509 0.5 0.628524 0.223284
574 1 0.136846 0.521945 0.5 0.0276182 -0.313543
575 1 0.565874 0.226078 0.5 0.774764 -0.170851
576 1 0.0749341 0.663126 0.5 -0.557407 -0.736925
577 1 0.214231 0.344219 0.5 -0.375837 0.806633
578 1 0.785165 0.283905 0.5 0.602356 -0.585142
579 1 0.124047 0.0613155 0.5 0.0735172 0.0748812
580 1 0.18145 0.453931 0.5 0.752512 0.277423
581 1 0.778497 0.100104 0.5 0.0133082 0.711259
582 1 0.0634385 0.452353 0.5 0.12702 -0.542974
583 1 0.461458 0.16871 0.5 0.808143 0.338887
584 1 0.0506564 0.257413 0.5 0.472959 -0.24215
585 1 0.774026 0.184284 0.5 -0.471668 0.241792
586 1 0.657984 0.170128 0.5 -0.619208 -0.0726622
587 1 0.787376 0.120046 0.5 0.211 0.779486
588 1 0.0732188 0.406854 0.5 -0.174946 0.0219294
589 1 0.970858 0.212068 0.5 -0.763404 0.24886
590 1 0.416172 0.134217 0.5 0.883551 -0.0222065
591 1 0.277502 0.377667 0.5 0.104559 -0.94731
592 1 0.813559 0.301146 0.5 0.734891 0.504578
593 1 0.0545604 0.575346 0.5 -0.599287 0.61311
594 1 0.391086 0.522641 0.5 -0.0830398 0.294189
595 1 0.0947389 0.530187 0.5 -0.798909 -0.371711
596 1 0.39137 0.279162 0.5 0.419609 -0.864251
597 1 0.606659 0.916512 0.5 -0.400443 0.179125
598 1 0.213253 0.212195 0.5 -0.003706 0.212648
599 1 0.200757 0.310757 0.5 -0.28009 0.0797533
600 1 0.487599 0.299976 0.5 0.432619 0.427923
601 1 0.635764 0.0159941 0.5 0.199928 0.221296
602 1 0.854611 0.604499 0.5 -0.637135 -0.725029
603 1 0.0249936 0.406682 0.5 0.615771 0.435687
604 1 0.0305319 0.179705 0.5 -0.789753 -0.306322
605 1 0.302611 0.113913 0.5 -0.179527 0.0391565
606 1 0.212779 0.255373 0.5 0.315759 0.607768
607 1 0.0832467 0.512241 0.5 -0.683069 0.183058
608 1 0.409534 0.314119 0.5 0.49055 -0.750061
609 1 0.366406 0.262332 0.5 0.842637 0.106295
610 1 0.182391 0.0642234 0.5 -0.2894 0.748418
611 1 0.689124 0.134697 0.5 -0.0348099 -0.276255
612 1 0.991791 0.361306 0.5 0.324354 0.67817
613 1 0.0524766 0.348074 0.5 -0.0350248 0.553763
614 1 0.14888 0.228405 0.5 -0.0325423 0.444772
615 1 0.855295 0.200071 0.5 0.887962 0.142704
616 1 0.0483117 0.29985 0.5 -0.781748 -0.399925
617 1 0.966735 0.273662 0.5 -0.494208 -0.0849619
618 1 0.0941635 0.549978 0.5 -0.806806 0.0247153
619 1 0.312803 0.331112 0.5 -0.0639426 -0.72207
620 1 0.0643368 0.0963271 0.5 -0.194516 0.279931
621 1 0.155661 0.10677 0.5 0.131045 0.857994
622 1 0.284541 0.353827 0.5 0.0901509 0.423589
623 1 0.142426 0.547253 0.5 0.256545 -0.286529
624 1 0.301556 0.296295 0.5 -0.657431 0.0890152
625 1 0.199607 0.301351 0.5 0.288315 -0.477262
626 1 0.919532 0.463995 0.5 -0.693155 0.126475
627 1 0.247548 0.278378 0.5 0.0218156 -0.00495266
628 1 0.789238 0.275278 0.5 0.796107 -0.300015
629 1 0.0869669 0.330074 0.5 0.895042 0.367346
630 1 0.389135 0.261979 0.5 0.449004 -0.685996
631 1 0.953798 0.483774 0.5 -0.523665 -0.385033
632 1 0.339859 0.253691 0.5 0.772908 0.40326
633 1 0.373172 0.424954 0.5 -0.0149956 -0.364788
634 1 0.882068 0.138026 0.5 -0.13153 -0.584522