ITEM: TIMESTEP
0
ITEM: NUMBER OF ATOMS
9945
ITEM: BOX BOUNDS pp pp pp
-5.8359999999999999e+01 5.8359999999999999e+01
-5.8359999999999999e+01 5.8359999999999999e+01
-5.0000000000000000e-01 5.0000000000000000e-01
ITEM: ATOMS id type xs ys zs c_002[1] c_002[2]
1 1 0.0798565 0.342842 0.5 0.0966836 0.45166
2 1 0.344075 0.775646 0.5 -0.631516 0.364231
3 1 0.287181 0.201062 0.5 -0.58913 -0.742674
4 1 0.18485 0.335891 0.5 0.413892 -0.607761
5 1 0.741946 0.216705 0.5 -0.429968 0.282139
6 1 0.0153125 0.41585 0.5 -0.119757 0.185376
7 1 0.0998473 0.360335 0.5 0.632412 0.183337
8 1 0.399887 0.348959 0.5 0.00507401 0.315779
9 1 0.430709 0.262188 0.5 0.0940019 0.534039
10 1 0.932385 0.0985439 0.5 -0.0861815 0.918221
11 1 0.875411 0.0510743 0.5 -0.305714 0.683678
12 1 0.315874 0.497091 0.5 -0.202023 0.091966
13 1 0.762442 0.253178 0.5 -0.14686 0.529741
14 1 0.481509 0.325449 0.5 0.0222751 0.635943
15 1 0.0221088 0.23697 0.5 0.0407052 0.691312
16 1 0.0208563 0.218081 0.5 -0.218952 0.673727
17 1 0.0621222 0.379622 0.5 -0.257321 -0.544841
18 1 0.0463679 0.053432 0.5 -0.0791001 0.255662
19 1 0.132419 0.261883 0.5 -0.134422 -0.0807293
20 1 0.896001 0.105386 0.5 -0.792549 0.539787
21 1 0.170738 0.145027 0.5 0.269638 -0.925793
22 1 0.0495836 0.337909 0.5 -0.746335 0.308873
23 1 0.159787 0.762596 0.5 0.337302 0.131439
24 1 0.250954 0.321055 0.5 0.0762947 0.126469
25 1 0.976112 0.828263 0.5 0.487302 -0.121797
26 1 0.256639 0.149535 0.5 -0.545011 -0.154081
27 1 0.853736 0.156455 0.5 -0.888052 0.0944242
28 1 0.225833 0.300169 0.5 0.603905 -0.551244
29 1 0.432787 0.190144 0.5 0.549396 0.514239
30 1 0.394822 0.195971 0.5 -0.703574 0.4463
31 1 0.235671 0.50542 0.5 -0.0810867 0.658535
32 1 0.255506 0.032639 0.5 -0.460356 -0.311466
33 1 0.219926 0.12591 0.5 -0.598565 0.13847
34 1 0.181836 0.430737 0.5 0.483965 0.691575
35 1 0.284089 0.343018 0.5 0.135567 -0.654728
36 1 0.252614 0.600595 0.5 0.845795 0.447382
37 1 0.816124 0.138603 0.5 -0.900442 0.325152
38 1 0.22738 0.331733 0.5 0.6996 0.400521
39 1 0.0949551 0.352077 0.5 0.741164 0.526437
40 1 0.426691 0.237348 0.5 -0.155467 -0.553923
41 1 0.982325 0.0650918 0.5 -0.452944 0.847579
42 1 0.852263 0.285901 0.5 -0.529879 0.463546
43 1 0.3413 0.299628 0.5 0.560208 0.498127
44 1 0.303129 0.246724 0.5 -0.823539 0.0577103
45 1 0.75749 0.271272 0.5 -0.785784 0.507699
46 1 0.121964 0.337115 0.5 -0.333068 -0.603306
47 1 0.270725 0.297171 0.5 0.311028 0.230925
48 1 0.311247 0.360414 0.5 -0.6296 0.111867
49 1 0.964733 0.0213755 0.5 0.440899 0.860405
50 1 0.782157 0.912364 0.5 -0.492234 0.573496
51 1 0.95194 0.105131 0.5 -0.288564 0.684142
52 1 0.409154 0.155748 0.5 0.276549 0.130282
53 1 0.189223 0.536438 0.5 -0.728957 -0.58322
54 1 0.196487 0.0600007 0.5 -0.592561 -0.530858
55 1 0.255423 0.235146 0.5 -0.341697 -0.409798
56 1 0.232705 0.0657541 0.5 -0.589294 -0.360636
57 1 0.213151 0.341387 0.5 0.0774872 -0.728035
58 1 0.991559 0.9421 0.5 0.493574 0.376485
59 1 0.220635 0.192871 0.5 -0.527579 -0.555044
60 1 0.90671 0.0526247 0.5 -0.155002 0.659252
61 1 0.369751 0.387787 0.5 -0.727894 0.136356
62 1 0.0233054 0.124784 0.5 -0.125211 0.920327
63 1 0.421587 0.0727812 0.5 -0.473767 -0.219153
64 1 0.948615 0.290283 0.5 -0.451479 -0.43509
65 1 0.0390405 0.0177386 0.5 -0.567467 0.504091
66 1 0.0901945 0.433116 0.5 -0.250832 -0.1691
67 1 0.251512 0.829686 0.5 -0.261898 0.097203
68 1 0.837145 0.249173 0.5 -0.656453 0.597416
69 1 0.219946 0.212869 0.5 -0.984874 0.043037
70 1 0.273271 0.984902 0.5 -0.496661 -0.409509
71 1 0.895287 0.508053 0.5 0.154045 0.856802
72 1 0.963003 0.117538 0.5 0.285651 0.801053
73 1 0.288808 0.488096 0.5 -0.300154 0.190075
74 1 0.287371 0.245878 0.5 0.33591 -0.333093
75 1 0.203903 0.0994056 0.5 -0.292433 -0.935514
76 1 0.752007 0.300576 0.5 -0.491701 0.789864
77 1 0.211014 0.185912 0.5 -0.159663 -0.380421
78 1 0.0954799 0.207174 0.5 0.203372 0.791036
79 1 0.769686 0.0181654 0.5 0.0514576 0.442628
80 1 0.223777 0.387079 0.5 0.121577 -0.663388
81 1 0.791926 0.244156 0.5 -0.483228 0.438911
82 1 0.188618 0.296226 0.5 0.180855 -0.259711
83 1 0.0558546 0.886694 0.5 0.62052 -0.615931
84 1 0.851642 0.215297 0.5 -0.77436 0.511629
85 1 0.314269 0.271716 0.5 -0.957241 0.0645056
86 1 0.987258 0.793074 0.5 0.253609 -0.205751
87 1 0.0170657 0.208225 0.5 0.0237883 0.873465
88 1 0.221892 0.243606 0.5 -0.333257 0.446103
89 1 0.153486 0.278139 0.5 -0.427338 0.77603
90 1 0.996322 0.171741 0.5 0.0391107 0.816577
91 1 0.156211 0.225017 0.5 0.163203 -0.553993
92 1 0.839418 0.192429 0.5 -0.315002 0.393579
93 1 0.143142 0.98578 0.5 0.371843 -0.871007
94 1 0.0183276 0.265381 0.5 -0.333202 0.6984
95 1 0.936768 0.166407 0.5 -0.769287 0.00949475
96 1 0.319615 0.355353 0.5 -0.361666 0.223528
97 1 0.255937 0.48133 0.5 0.491136 0.840993
98 1 0.980818 0.0547067 0.5 0.194817 0.507411
99 1 0.0561446 0.09873 0.5 -0.0787035 0.38076
100 1 0.155913 0.328879 0.5 -0.0754029 0.152553
101 1 0.289443 0.180324 0.5 -0.774701 -0.274184
102 1 0.98032 0.987087 0.5 0.252368 0.913445
103 1 0.311086 0.808218 0.5 0.263374 0.848581
104 1 0.14344 0.341226 0.5 0.123489 -0.342717
105 1 0.154446 0.287905 0.5 -0.263235 0.639256
106 1 0.358497 0.542022 0.5 0.362282 0.70444
107 1 0.905802 0.119664 0.5 -0.484604 0.73999
108 1 0.0743696 0.11935 0.5 0.658331 -0.044519
109 1 0.363547 0.971583 0.5 0.254369 0.781838
110 1 0.258521 0.2536 0.5 0.280087 -0.666424
111 1 0.39595 0.299086 0.5 0.90332 -0.0336295
112 1 0.184626 0.363743 0.5 0.746432 -0.489457
113 1 0.0190701 0.0892079 0.5 0.757844 0.549536
114 1 0.903532 0.198753 0.5 -0.618338 0.469313
115 1 0.0416348 0.936534 0.5 -0.437201 -0.83213
116 1 0.066865 0.264908 0.5 -0.506666 0.310549
117 1 0.0240844 0.285123 0.5 0.171311 0.864756
118 1 0.163582 0.281564 0.5 -0.172887 0.854132
119 1 0.944464 0.216209 0.5 -0.686356 0.0660999
120 1 0.106182 0.0582314 0.5 0.178416 0.0062829
121 1 0.0352485 0.250883 0.5 -0.32117 0.690293
122 1 0.00212266 0.334833 0.5 0.120029 -0.668896
123 1 0.883504 0.295195 0.5 -0.808247 0.554626
124 1 0.943288 0.225617 0.5 -0.309235 -0.785698
125 1 0.0523855 0.236023 0.5 -0.0728533 0.563418
126 1 0.0630748 0.922004 0.5 0.282548 -0.52613
127 1 0.0386779 0.261591 0.5 -0.508941 0.454062
128 1 0.0601917 0.190677 0.5 0.190219 0.37634
129 1 0.128918 0.147364 0.5 -0.172563 0.762456
130 1 0.265378 0.133126 0.5 -0.660899 -0.392692
131 1 0.198938 0.54188 0.5 -0.897506 0.0089459
132 1 0.190186 0.326873 0.5 0.913391 -0.204115
133 1 0.88054 0.139167 0.5 -0.665282 0.25756
134 1 0.268995 0.181375 0.5 -0.705741 -0.186358
135 1 0.924059 0.210306 0.5 -0.268798 0.13255
136 1 0.327111 0.118886 0.5 0.825953 -0.348448
137 1 0.666095 0.120769 0.5 -0.802687 -0.0807573
138 1 0.211434 0.169139 0.5 0.0270881 -0.16716
139 1 0.224516 0.182518 0.5 -0.313379 -0.704409
140 1 0.0514523 0.287485 0.5 -0.790687 0.240637
141 1 0.201461 0.24205 0.5 -0.734735 -0.209069
142 1 0.255601 0.159185 0.5 -0.736039 0.0548538
143 1 0.0126992 0.157679 0.5 -0.382455 0.779179
144 1 0.875925 0.0867763 0.5 -0.70134 0.578951
145 1 0.016426 0.000832989 0.5 0.358475 0.746011
146 1 0.0239411 0.975621 0.5 0.496329 0.43235
147 1 0.204367 0.362434 0.5 0.490353 -0.77038
148 1 0.648633 0.450469 0.5 0.547271 0.716498
149 1 0.166259 0.291128 0.5 0.301711 0.917063
150 1 0.115744 0.294528 0.5 -0.440873 0.282518
151 1 0.162515 0.410511 0.5 0.719755 0.144503
152 1 0.936881 0.119219 0.5 -0.485906 0.579931
153 1 0.252252 0.391094 0.5 -0.508495 -0.298153
154 1 0.937592 0.0711098 0.5 -0.253631 0.839084
155 1 0.0400737 0.986428 0.5 0.0901522 -0.14643
156 1 0.422381 0.257549 0.5 -0.212658 -0.218273
157 1 0.924034 0.0473048 0.5 0.311084 0.626515
158 1 0.323369 0.365293 0.5 -0.346677 0.414306
159 1 0.943277 0.101134 0.5 -0.121546 0.670117
160 1 0.0374503 0.920132 0.5 -0.0238964 -0.754434
161 1 0.775889 0.314767 0.5 -0.251443 0.579898
162 1 0.949073 0.092691 0.5 -0.321182 0.541494
163 1 0.904057 0.884964 0.5 0.893728 -0.166474
164 1 0.96743 0.00266608 0.5 0.663325 0.710877
165 1 0.990189 0.783168 0.5 0.155857 -0.481536
166 1 0.138166 0.150274 0.5 0.168529 0.608632
167 1 0.459462 0.226715 0.5 -0.186766 0.714731
168 1 0.870866 0.0207915 0.5 -0.246761 0.8676
169 1 0.289985 0.322802 0.5 0.0623786 -0.72504
170 1 0.903256 0.25225 0.5 -0.620259 -0.388229
171 1 0.426898 0.249091 0.5 -0.179456 0.415842
172 1 0.932821 0.33777 0.5 -0.868333 0.0928539
173 1 0.269123 0.282158 0.5 0.0511329 -0.326544
174 1 0.762585 0.063778 0.5 -0.759258 -0.0199413
175 1 0.00309313 0.195823 0.5 0.0777975 0.440592
176 1 0.285745 0.160128 0.5 -0.0617247 0.20403
177 1 0.232405 0.38318 0.5 0.0280652 -0.0368064
178 1 0.0998692 0.177415 0.5 -0.410322 0.55014
179 1 0.180792 0.0401524 0.5 -0.0482921 0.0532768
180 1 0.0488361 0.328002 0.5 -0.834964 0.151328
181 1 0.0857927 0.191979 0.5 -0.489185 0.496364
182 1 0.123613 0.279421 0.5 -0.447241 0.459817
183 1 0.0111146 0.0199609 0.5 0.298483 0.196738
184 1 0.294206 0.314338 0.5 -0.155241 -0.730496
185 1 0.0734756 0.955327 0.5 -0.285118 -0.868363
186 1 0.0012474 0.185031 0.5 -0.244579 0.176964
187 1 0.989307 0.085578 0.5 -0.379655 0.481232
188 1 0.236002 0.167962 0.5 -0.131647 -0.801317
189 1 0.207124 0.272757 0.5 0.560249 -0.489075
190 1 0.158095 0.312209 0.5 0.0653539 -0.449923
191 1 0.919749 0.142954 0.5 -0.52789 0.228907
192 1 0.828451 0.258711 0.5 -0.0497492 0.602841
193 1 0.764856 0.185692 0.5 -0.667183 0.601945
194 1 0.263813 0.418768 0.5 -0.0925844 0.742228
195 1 0.0565878 0.0851027 0.5 -0.168594 0.653434
196 1 0.341985 0.393335 0.5 -0.721324 0.273613
197 1 0.146737 0.256005 0.5 0.300608 0.776366
198 1 0.223129 0.340273 0.5 0.260327 -0.0750871
199 1 0.0894691 0.313751 0.5 -0.48306 0.515954
200 1 0.251372 0.245117 0.5 -0.0889469 -0.442928
201 1 0.177993 0.960958 0.5 0.223738 -0.739433
202 1 0.216396 0.273233 0.5 0.908716 0.122702
203 1 0.175233 0.33773 0.5 -0.0984661 -0.831648
204 1 0.763617 0.960543 0.5 0.337755 -0.119027
205 1 0.263783 0.230193 0.5 0.0103449 -0.458471
206 1 0.323253 0.223949 0.5 -0.858357 -0.107263
207 1 0.793028 0.187384 0.5 -0.825905 0.433606
208 1 0.949518 0.170248 0.5 -0.449841 0.525401
209 1 0.88619 0.112512 0.5 -0.408309 0.340484
210 1 0.21141 0.370636 0.5 0.450262 -0.837832
211 1 0.296317 0.197938 0.5 -0.761342 -0.352052
212 1 0.774189 0.0812019 0.5 -0.701965 0.271102
213 1 0.902584 0.97798 0.5 -0.298784 -0.246034
214 1 0.0993398 0.307483 0.5 -0.867459 0.0760561
215 1 0.534 0.219991 0.5 -0.498432 0.563235
216 1 0.0802757 0.519485 0.5 0.510679 0.720773
217 1 0.00220458 0.0641177 0.5 -0.162436 0.741403
218 1 0.845869 0.385213 0.5 0.227388 -0.6398
219 1 0.261674 0.292577 0.5 0.46102 0.471295
220 1 0.066496 0.0893319 0.5 0.0197388 -0.165495
221 1 0.788756 0.0401067 0.5 -0.339772 -0.197243
222 1 0.201566 0.432386 0.5 0.73737 0.545595
223 1 0.120994 0.347113 0.5 -0.167227 -0.496126
224 1 0.9865 0.170095 0.5 0.557124 0.766683
225 1 0.768662 0.899459 0.5 -0.162552 0.634125
226 1 0.397159 0.339538 0.5 0.318679 0.797367
227 1 0.00151586 0.944245 0.5 0.349828 0.490623
228 1 0.967165 0.383673 0.5 0.482664 -0.268148
229 1 0.944275 0.110814 0.5 -0.452093 0.616347
230 1 0.106248 0.278579 0.5 -0.388765 0.121078
231 1 0.999488 0.780202 0.5 -0.580448 -0.675046
232 1 0.198516 0.0387827 0.5 -0.381802 0.146815
233 1 0.270223 0.389201 0.5 -0.595806 0.329438
234 1 0.972891 0.187352 0.5 0.476243 0.471492
235 1 0.151026 0.26674 0.5 0.125507 0.832614
236 1 0.594494 0.174502 0.5 -0.403316 0.666943
237 1 0.950741 0.199843 0.5 -0.580681 0.241405
238 1 0.290617 0.421104 0.5 -0.511433 0.739171
239 1 0.981474 0.267794 0.5 -0.138202 -0.851229
240 1 0.235802 0.426504 0.5 -0.853951 -0.191218
241 1 0.0109862 0.120437 0.5 0.0502754 0.653015
242 1 0.0588109 0.280942 0.5 -0.669226 0.580902
243 1 0.319713 0.313144 0.5 -0.561274 -0.0489665
244 1 0.0879639 0.225482 0.5 -0.554753 0.442772
245 1 0.173989 0.161702 0.5 0.320359 -0.310745
246 1 0.051231 0.943893 0.5 -0.236688 -0.728661
247 1 0.0606797 0.291262 0.5 -0.624066 0.702037
248 1 0.885849 0.0538394 0.5 -0.363448 0.679925
249 1 0.203258 0.344854 0.5 0.463309 -0.532399
250 1 0.268202 0.253317 0.5 0.150772 -0.434103
251 1 0.0194754 0.964766 0.5 0.478311 0.481363
252 1 0.844536 0.231902 0.5 -0.383516 0.821696
253 1 0.0860702 0.203731 0.5 -0.487936 0.520661
254 1 0.377942 0.230134 0.5 -0.691847 -0.444301
255 1 0.979481 0.27714 0.5 0.305159 -0.801973
256 1 0.989935 0.1417 0.5 -0.0250669 0.838791
257 1 0.956994 0.283616 0.5 -0.433961 -0.518101
258 1 0.193509 0.409194 0.5 0.124634 -0.087477
259 1 0.971371 0.052896 0.5 -0.421211 0.308889
260 1 0.92967 0.256498 0.5 -0.0323214 0.0151076
261 1 0.210917 0.218079 0.5 -0.990175 -0.0912193
262 1 0.304836 0.212776 0.5 -0.808354 -0.0778193
263 1 0.125481 0.205458 0.5 -0.611773 0.720553
264 1 0.000454721 0.989401 0.5 0.567293 0.535757
265 1 0.209218 0.291545 0.5 0.269847 -0.611113
266 1 0.183956 0.4403 0.5 0.253642 0.876742
267 1 0.376663 0.298805 0.5 0.684823 -0.0853354
268 1 0.137387 0.129749 0.5 -0.0173351 0.243336
269 1 0.937947 0.130518 0.5 -0.207886 0.538875
270 1 0.241449 0.31862 0.5 -0.307533 0.0754364
271 1 0.338142 0.319841 0.5 -0.37964 0.818434
272 1 0.0926164 0.264313 0.5 -0.608523 0.549202
273 1 0.11879 0.0989463 0.5 0.203453 -0.247507
274 1 0.997053 0.135889 0.5 -0.0918887 0.963405
275 1 0.961822 0.227581 0.5 -0.594138 -0.566218
276 1 0.225717 0.474764 0.5 0.186446 0.917608
277 1 0.262546 0.274136 0.5 -0.0562345 -0.55837
278 1 0.100743 0.0684781 0.5 0.67025 -0.60339
279 1 0.127138 0.797347 0.5 0.703386 0.102297
280 1 0.116926 0.212033 0.5 -0.589199 0.771782
281 1 0.842863 0.151331 0.5 -0.487866 0.322909
282 1 0.00967759 0.260929 0.5 -0.203453 0.0618803
283 1 0.394656 0.207141 0.5 -0.72698 0.21663
284 1 0.0920392 0.254728 0.5 -0.9158 0.156668
285 1 0.903198 0.766297 0.5 0.616766 0.472711
286 1 0.140822 0.331991 0.5 0.480588 -0.132808
287 1 0.287888 0.334186 0.5 0.0201447 -0.850106
288 1 0.239021 0.259765 0.5 0.243778 -0.0876142
289 1 0.406853 0.253083 0.5 0.0332927 -0.260445
290 1 0.958376 0.0288212 0.5 0.0259438 0.804601
291 1 0.0419685 0.379988 0.5 -0.480327 -0.441386
292 1 0.482636 0.194857 0.5 0.177987 0.819089
293 1 0.132353 0.298348 0.5 -0.124045 -0.169483
294 1 0.77014 0.145672 0.5 -0.76852 0.218829
295 1 0.0628899 0.174186 0.5 -0.234473 0.545436
296 1 0.882524 0.261831 0.5 -0.767021 -0.374389
297 1 0.680293 0.254474 0.5 0.332599 0.759765
298 1 0.164591 0.241879 0.5 -0.561343 0.484536
299 1 0.294755 0.252233 0.5 -0.827852 0.105876
300 1 0.863697 0.251507 0.5 -0.743988 0.564713
301 1 0.287134 0.400326 0.5 -0.802417 0.56512
302 1 0.052738 0.134505 0.5 -0.361908 0.482522
303 1 0.936136 0.30504 0.5 -0.255358 -0.572213
304 1 0.622699 0.187613 0.5 -0.424353 0.748084
305 1 0.35995 0.238682 0.5 -0.205606 -0.380057
306 1 0.982961 0.189786 0.5 0.474855 -0.0102657
307 1 0.119881 0.143522 0.5 -0.394754 0.555825
308 1 0.69869 0.155117 0.5 -0.772361 0.190226
309 1 0.475179 0.250139 0.5 -0.353527 0.834596
310 1 0.0168994 0.106072 0.5 0.486589 0.142534
311 1 0.0691135 0.194667 0.5 -0.397088 0.811658
312 1 0.387895 0.337383 0.5 0.116502 0.888161
313 1 0.923524 0.791584 0.5 0.536745 -0.0326765
314 1 0.13569 0.169252 0.5 0.546793 0.420142
315 1 0.0490632 0.506672 0.5 -0.810957 0.162534
316 1 0.887058 0.338141 0.5 -0.526252 -0.194466
317 1 0.0333829 0.427525 0.5 0.167737 0.482295
318 1 0.831425 0.398326 0.5 -0.785437 -0.401644
319 1 0.946993 0.448153 0.5 0.104888 0.754673
320 1 0.958065 0.403351 0.5 0.414022 -0.650245
321 1 0.197967 0.422336 0.5 0.684653 0.458424
322 1 0.106891 0.353725 0.5 0.598689 0.394638
323 1 0.747754 0.462966 0.5 0.441059 0.554062
324 1 0.776058 0.604646 0.5 0.138713 0.0585033
325 1 0.0698242 0.566357 0.5 0.284355 0.295855
326 1 0.353067 0.188996 0.5 0.18013 -0.41271
327 1 0.940467 0.321017 0.5 -0.483581 -0.0801042
328 1 0.177818 0.421408 0.5 0.754813 0.55142
329 1 0.879911 0.35953 0.5 -0.22628 -0.299334
330 1 0.932204 0.228454 0.5 -0.157445 -0.854908
331 1 0.235955 0.581048 0.5 0.41538 0.565671
332 1 0.991296 0.115609 0.5 0.0117515 0.9352
333 1 0.874276 0.290856 0.5 -0.411742 0.131252
334 1 0.979183 0.201099 0.5 0.568411 -0.152573
335 1 0.155312 0.402579 0.5 0.807072 0.0825107
336 1 0.327969 0.306751 0.5 -0.431061 -0.0499427
337 1 0.922363 0.0955121 0.5 -0.17606 0.949091
338 1 0.8176 0.293369 0.5 -0.294405 0.727496
339 1 0.249079 0.516805 0.5 0.651808 0.71491
340 1 0.183857 0.413402 0.5 0.437424 0.0207343
341 1 0.84173 0.332612 0.5 -0.589433 0.746678
342 1 0.14108 0.369891 0.5 0.619587 -0.243252
343 1 0.382082 0.260861 0.5 0.0607631 -0.436586
344 1 0.00988754 0.360367 0.5 -0.598781 0.0315509
345 1 0.941732 0.36373 0.5 -0.622228 -0.122977
346 1 0.923206 0.352327 0.5 -0.678773 -0.418892
347 1 0.208337 0.478727 0.5 0.076768 0.733147
348 1 0.135831 0.362012 0.5 0.456083 -0.563019
349 1 0.791043 0.360555 0.5 -0.81691 0.45168
350 1 0.224538 0.531062 0.5 0.393089 0.827963
351 1 0.804829 0.495872 0.5 0.180107 -0.215181
352 1 0.202116 0.284507 0.5 0.220292 -0.80125
353 1 0.37233 0.32714 0.5 0.722851 -0.315167
354 1 0.160986 0.215092 0.5 0.924879 -0.0517447
355 1 0.0208405 0.510139 0.5 -0.386206 -0.513436
356 1 0.111561 0.265241 0.5 0.128982 -0.107487
357 1 0.904415 0.607477 0.5 -0.50438 -0.257249
358 1 0.304238 0.438058 0.5 -0.274156 0.60399
359 1 0.977844 0.239849 0.5 0.311024 -0.931536
360 1 0.197174 0.460658 0.5 0.371075 0.144395
361 1 0.06625 0.431549 0.5 0.396142 0.766389
362 1 0.136602 0.426426 0.5 0.83874 0.0880371
363 1 0.89476 0.479354 0.5 0.453568 0.207759
364 1 0.0835925 0.116081 0.5 -0.263633 -0.313027
365 1 0.913908 0.325364 0.5 -0.718224 0.0143193
366 1 0.815635 0.341053 0.5 -0.416699 0.75047
367 1 0.773669 0.305107 0.5 0.0067894 0.864232
368 1 0.0771074 0.486907 0.5 -0.456956 0.62872
369 1 0.998626 0.357448 0.5 -0.558123 -0.120658
370 1 0.071044 0.305329 0.5 -0.549003 0.524913
371 1 0.233112 0.267141 0.5 0.395617 0.560891
372 1 0.243628 0.3854 0.5 -0.122225 0.223328
373 1 0.0202083 0.227434 0.5 -0.361536 0.572831
374 1 0.961595 0.323591 0.5 -0.71505 -0.640965
375 1 0.245331 0.368587 0.5 0.794758 0.269824
376 1 0.337465 0.310282 0.5 -0.00718522 0.352391
377 1 0.0788347 0.390895 0.5 0.154574 -0.0233381
378 1 0.999869 0.145731 0.5 0.121726 0.843532
379 1 0.379656 0.307945 0.5 0.702666 0.00385542
380 1 0.698779 0.245209 0.5 0.528085 -0.00521517
381 1 0.808489 0.534322 0.5 0.496812 0.316264
382 1 0.121422 0.244429 0.5 0.0118015 0.0111112
383 1 0.323735 0.645795 0.5 0.180019 0.527107
384 1 0.86879 0.319536 0.5 0.0337516 0.589109
385 1 0.0850991 0.368878 0.5 0.533401 0.189857
386 1 0.913337 0.223332 0.5 0.484328 -0.645647
387 1 0.137176 0.227408 0.5 0.362499 0.377478
388 1 0.137429 0.445283 0.5 0.914542 0.315889
389 1 0.259697 0.195135 0.5 -0.724569 -0.629485
390 1 0.840652 0.394225 0.5 -0.13389 -0.561541
391 1 0.132445 0.554976 0.5 -0.257281 -0.0544122
392 1 0.250433 0.545564 0.5 0.341618 0.733893
393 1 0.0495847 0.464341 0.5 -0.200273 0.373947
394 1 0.223133 0.464463 0.5 0.463817 0.736491
395 1 0.179536 0.327684 0.5 0.58045 -0.532057
396 1 0.897963 0.469607 0.5 0.416664 0.324356
397 1 0.918172 0.275257 0.5 -0.0381298 0.164516
398 1 0.161561 0.269955 0.5 0.0364513 0.587762
399 1 0.304206 0.297342 0.5 -0.481008 -0.0912929
400 1 0.987524 0.569539 0.5 0.368056 -0.0911822
401 1 0.40587 0.219799 0.5 -0.638432 0.433401
402 1 0.0389005 0.492205 0.5 -0.426058 0.448434
403 1 0.933271 0.410452 0.5 -0.800926 0.267559
404 1 0.991861 0.467233 0.5 0.460565 -0.0566348
405 1 0.437782 0.408875 0.5 0.07591 -0.348337
406 1 0.132364 0.399462 0.5 0.709943 0.518265
407 1 0.933591 0.210031 0.5 -0.238706 0.385201
408 1 0.205287 0.317361 0.5 0.232328 0.0827511
409 1 0.87511 0.301822 0.5 -0.388284 0.736638
410 1 0.0897862 0.502428 0.5 0.364569 0.21007
411 1 0.151753 0.0413248 0.5 -0.109277 2.36731e-05
412 1 0.216908 0.50241 0.5 0.486663 0.491737
413 1 0.194403 0.364174 0.5 0.694106 -0.375164
414 1 0.825887 0.48 0.5 -0.230063 0.161813
415 1 0.343394 0.403999 0.5 -0.585969 0.408545
416 1 0.183064 0.391504 0.5 0.763938 0.183812
417 1 0.36584 0.271964 0.5 0.376279 0.0521835
418 1 0.277263 0.363282 0.5 -0.262337 -0.376501
419 1 0.75647 0.190163 0.5 -0.597953 0.54098
420 1 0.98208 0.294255 0.5 0.147483 -0.437693
421 1 0.305347 0.625528 0.5 0.58726 0.763053
422 1 0.142124 0.454601 0.5 0.596051 0.50107
423 1 0.755352 0.3592 0.5 0.200066 0.884712
424 1 0.782703 0.523019 0.5 0.683279 0.646709
425 1 0.941567 0.427639 0.5 -0.436751 0.386269
426 1 0.737092 0.613518 0.5 0.594731 0.136403
427 1 0.849069 0.326564 0.5 -0.398773 0.786477
428 1 0.140561 0.535772 0.5 0.530269 0.0235173
429 1 0.923857 0.222796 0.5 -0.0713714 -0.577928
430 1 0.196298 0.441846 0.5 0.358284 0.32766
431 1 0.861514 0.392739 0.5 0.558932 0.423818
432 1 0.029697 0.489313 0.5 -0.1428 0.85372
433 1 0.462666 0.236289 0.5 0.0455775 0.90359
434 1 0.905263 0.361174 0.5 -0.674852 -0.372605
435 1 0.954749 0.307215 0.5 -0.669311 -0.670479
436 1 0.180313 0.276563 0.5 0.059122 0.435341
437 1 0.225216 0.653268 0.5 0.791678 0.460414
438 1 0.164364 0.36803 0.5 0.630838 -0.19398
439 1 0.108459 0.313724 0.5 -0.557957 -0.603916
440 1 0.852016 0.335886 0.5 -0.0852413 0.863158
441 1 0.78762 0.225416 0.5 -0.646659 0.612465
442 1 0.980479 0.596131 0.5 0.00659071 0.914186
443 1 0.933482 0.347253 0.5 -0.931608 0.196833
444 1 0.874438 0.458553 0.5 0.746329 0.31354
445 1 0.0616113 0.344389 0.5 -0.60594 -0.115913
446 1 0.220087 0.395825 0.5 0.258609 -0.216098
447 1 0.903375 0.340097 0.5 -0.524168 -0.182101
448 1 0.352903 0.39922 0.5 -0.639621 0.552569
449 1 0.0656877 0.626316 0.5 0.0685561 0.648439
450 1 0.980697 0.314314 0.5 -0.852294 -0.385639
451 1 0.872967 0.177626 0.5 -0.796596 0.451377
452 1 0.234178 0.624922 0.5 0.0434745 0.622843
453 1 0.131055 0.568133 0.5 -0.0363304 0.0266356
454 1 0.291733 0.349813 0.5 -0.553121 0.206656
455 1 0.131551 0.271532 0.5 -0.501982 0.573629
456 1 0.20195 0.23279 0.5 -0.907558 -0.386363
457 1 0.158106 0.488042 0.5 0.433806 0.0497528
458 1 0.877498 0.411725 0.5 0.734084 0.379754
459 1 0.999616 0.30554 0.5 -0.778505 -0.269486
460 1 0.254707 0.350237 0.5 0.454622 -0.681878
461 1 0.755088 0.0798292 0.5 -0.810321 0.472833
462 1 0.913029 0.411394 0.5 -0.418439 -0.120238
463 1 0.297959 0.271885 0.5 -0.158798 -0.214904
464 1 0.421673 0.327084 0.5 0.10937 0.719133
465 1 0.131241 0.334729 0.5 -0.138674 -0.519567
466 1 0.953326 0.220649 0.5 -0.587175 -0.337319
467 1 0.250008 0.462427 0.5 -0.0493586 -0.0976501
468 1 0.326208 0.41724 0.5 -0.228693 0.777631
469 1 0.358152 0.197085 0.5 -0.181984 -0.662909
470 1 0.865905 0.262501 0.5 -0.778301 0.0564032
471 1 0.233761 0.367821 0.5 0.611925 -0.181874
472 1 0.318262 0.474225 0.5 -0.767872 0.434357
473 1 0.81343 0.436314 0.5 0.291642 -0.780305
474 1 0.779448 0.130744 0.5 -0.737974 0.330921
475 1 0.965021 0.440861 0.5 0.346569 0.376871
476 1 0.952549 0.411434 0.5 0.347915 -0.299872
477 1 0.370042 0.290176 0.5 0.542391 -0.621755
478 1 0.807907 0.371478 0.5 -0.349855 0.281459
479 1 0.87235 0.477958 0.5 0.943634 0.1683
480 1 0.893358 0.299352 0.5 -0.533329 0.660637
481 1 0.824516 0.451511 0.5 0.420063 -0.790135
482 1 0.0169633 0.387327 0.5 -0.364438 -0.0441211
483 1 0.0480256 0.496338 0.5 -0.785847 0.51504
484 1 0.195855 0.334409 0.5 0.682628 -0.515123
485 1 0.0290273 0.319707 0.5 -0.597429 0.370109
486 1 0.38304 0.0809947 0.5 0.119876 0.546775
487 1 0.929927 0.435265 0.5 0.311042 -0.0291572
488 1 0.282317 0.426588 0.5 -0.283729 0.781692
489 1 0.15053 0.367699 0.5 0.564687 -0.267278
490 1 0.0364354 0.724483 0.5 -0.827428 -0.416684
491 1 0.0164784 0.37763 0.5 -0.705838 -0.307424
492 1 0.33496 0.260952 0.5 -0.716928 0.111727
493 1 0.0486419 0.317093 0.5 -0.311625 0.491704
494 1 0.910196 0.452941 0.5 0.94524 0.0388862
495 1 0.581289 0.151096 0.5 -0.325012 0.726458
496 1 0.0900322 0.303512 0.5 -0.622774 0.590011
497 1 0.791897 0.0898645 0.5 -0.712647 0.385635
498 1 0.933625 0.357756 0.5 -0.785019 -0.30289
499 1 0.83902 0.709127 0.5 -0.473067 -0.735738
500 1 0.00313566 0.400087 0.5 -0.702479 -0.0405321
501 1 0.18056 0.372944 0.5 0.334011 -0.616965
502 1 0.169758 0.176465 0.5 0.114709 0.419547
503 1 0.915873 0.42136 0.5 0.0244164 0.298625
504 1 0.13366 0.545188 0.5 0 0
505 1 0.15213 0.687017 0.5 -0.344589 0.252233
506 1 0.183399 0.345472 0.5 0.312178 -0.764025
507 1 0.146497 0.646341 0.5 0.492024 -0.686129
508 1 0.978232 0.399151 0.5 0.174673 -0.155438
509 1 0.986621 0.330417 0.5 -0.277203 -0.318089
510 1 0.260687 0.397062 0.5 -0.615334 -0.219756
511 1 0.697152 0.477014 0.5 -0.618796 0.29304
512 1 0.732318 0.212785 0.5 -0.44855 0.186982
513 1 0.105291 0.289442 0.5 -0.560833 0.445922
514 1 0.730172 0.405432 0.5 0.125143 -0.655355
515 1 0.068976 0.49591 0.5 -0.282655 0.371038
516 1 0.32448 0.554758 0.5 0.304365 0.771176
517 1 0.967846 0.450114 0.5 0.594533 0.0792294
518 1 0.737758 0.313971 0.5 0.014365 0.925122
519 1 0.936893 0.245758 0.5 0.547044 -0.61456
520 1 0.811432 0.320213 0.5 -0.719591 0.568167
521 1 0.0789389 0.299998 0.5 -0.809424 0.321051
522 1 0.0855288 0.441002 0.5 -0.00986942 0.217891
523 1 0.975011 0.458086 0.5 0.557557 -0.277331
524 1 0.228444 0.208123 0.5 -0.874543 -0.0946857
525 1 0.513302 0.251053 0.5 0.27155 0.927591
526 1 0.295285 0.283879 0.5 0.0841093 -0.278435
527 1 0.0259097 0.391429 0.5 -0.407442 -0.192389
528 1 0.0495498 0.408966 0.5 -0.248806 0.273812
529 1 0.376333 0.430627 0.5 0.031805 0.466724
530 1 0.0439936 0.167935 0.5 -0.324378 0.656945
531 1 0.110903 0.658511 0.5 -0.221907 -0.314168
532 1 0.939893 0.23487 0.5 0.125468 -0.886841
533 1 0.977713 0.375043 0.5 0.102836 -0.0636164
534 1 0.229626 0.255884 0.5 -0.0580999 0.307827
535 1 0.946105 0.387675 0.5 -0.0273725 -0.205719
536 1 0.682822 0.234642 0.5 0.459356 0.651599
537 1 0.522017 0.306338 0.5 0.0182275 0.245782
538 1 0.922222 0.283765 0.5 0.263753 0.18425
539 1 0.950329 0.34627 0.5 -0.691368 -0.163195
540 1 0.973018 0.147485 0.5 0.199515 0.795934
541 1 0.0584312 0.403079 0.5 -0.506656 0.305517
542 1 0.0276698 0.452965 0.5 -0.0121479 0.195838
543 1 0.94558 0.46757 0.5 0.632418 0.596959
544 1 0.340684 0.162657 0.5 -0.833204 0.157799
545 1 0.915551 0.444869 0.5 0.85144 0.0995161
546 1 0.143212 0.655764 0.5 0.668244 -0.603939
547 1 0.789069 0.426676 0.5 0.3815 -0.488186
548 1 0.0141275 0.131887 0.5 -0.204381 0.826249
549 1 0.560595 0.61121 0.5 0.76266 -0.423417
550 1 0.813117 0.220091 0.5 -0.42926 0.518543
551 1 0.220522 0.367934 0.5 0.381012 -0.248093
552 1 0.158932 0.559289 0.5 -0.743426 -0.39021
553 1 0.141699 0.188185 0.5 0.323125 0.415308
554 1 0.0477791 0.516434 0.5 -0.474804 -0.216484
555 1 0.946916 0.244447 0.5 0.541114 -0.23224
556 1 0.193108 0.236899 0.5 -0.850578 0.148897
557 1 0.362135 0.252501 0.5 -0.0924135 0.699117
558 1 0.0752758 0.54745 0.5 0.744465 0.550334
559 1 0.0153332 0.680012 0.5 0.350705 -0.617777
560 1 0.0946912 0.27623 0.5 -0.390768 0.773575
561 1 0.766332 0.324597 0.5 -0.263747 0.665523
562 1 0.187808 0.460301 0.5 0.145572 0.724628
563 1 0.111782 0.381038 0.5 0.918567 -0.00526163
564 1 0.141196 0.0620139 0.5 0.676885 0.00261921
565 1 0.0509065 0.559045 0.5 0.195792 0.308666
566 1 0.178353 0.507686 0.5 -0.2207 0.090642
567 1 0.0996587 0.587972 0.5 0.0253707 0.947573
568 1 0.693517 0.211058 0.5 0.233122 0.902776
569 1 0.273107 0.423452 0.5 -0.480889 0.792817
570 1 0.813238 0.196837 0.5 -0.92185 0.204321
571 1 0.203427 0.256024 0.5 -0.285132 -0.391325
572 1 0.251225 0.361089 0.5 0.518734 -0.164589
573 1 0.797447 0.286853 0.5 -0.532025 0.771026
574 1 0.156916 0.47054 0.5 0.0788411 0.661856
575 1 0.683404 0.417034 0.5 0.268569 -0.129507
576 1 0.92871 0.673843 0.5 0.576765 -0.475702
577 1 0.155522 0.385235 0.5 0.101112 0.0958707
578 1 0.862348 0.33757 0.5 0.100612 0.654621
579 1 0.117851 0.310509 0.5 -0.117434 -0.415394
580 1 0.119499 0.485142 0.5 0.581984 0.0854037
581 1 0.919872 0.232211 0.5 0.00321875 -0.617772
582 1 0.0418403 0.470452 0.5 0.139789 -0.128976
583 1 0.505201 0.258681 0.5 0.162437 0.880747
584 1 0.157221 0.375543 0.5 0.14649 -0.266584
585 1 0.937748 0.382865 0.5 -0.328453 0.0537439
586 1 0.882442 0.273281 0.5 -0.959163 0.0796443
587 1 0.855806 0.306843 0.5 -0.692451 0.597251
588 1 0.951683 0.43066 0.5 0.46999 0.708524
589 1 0.00865522 0.370658 0.5 -0.685061 -0.267876
590 1 0.407203 0.229129 0.5 -0.15677 0.144569
591 1 0.208791 0.407457 0.5 0.0239454 -0.179465
592 1 0.909818 0.295428 0.5 0.101222 0.160843
593 1 0.195888 0.600933 0.5 0.561024 0.590163
594 1 0.448274 0.508911 0.5 0.0441414 0.617468
595 1 0.0739557 0.468021 0.5 -0.408872 0.693086
596 1 0.26115 0.384809 0.5 -0.659676 0.363625
597 1 0.782746 0.0743231 0.5 -0.625162 0.491272
598 1 0.295717 0.444763 0.5 -0.736422 0.538974
599 1 0.0925285 0.244391 0.5 -0.768479 0.321864
600 1 0.282297 0.354814 0.5 -0.00687052 -0.292998
601 1 0.715124 0.239247 0.5 0.465347 -0.0956349
602 1 0.837484 0.57686 0.5 -0.766821 0.511083
603 1 0.0150853 0.449853 0.5 0.54418 0.663315
604 1 0.906087 0.312477 0.5 -0.0872956 0.422987
605 1 0.417805 0.228797 0.5 0.557709 -0.18092
606 1 0.162521 0.321709 0.5 0.404729 0.208936
607 1 0.0820358 0.565304 0.5 0.521561 0.242558
608 1 0.32364 0.406597 0.5 -0.465958 0.43962
609 1 0.364681 0.317577 0.5 0.897119 -0.0260519
610 1 0.210934 0.228875 0.5 -0.911742 -0.210371
611 1 0.811715 0.248238 0.5 0.0332714 0.470073
612 1 0.946726 0.377814 0.5 -0.186628 -0.338104
613 1 0.963959 0.411384 0.5 0.577676 -0.623099
614 1 0.0601033 0.219337 0.5 -0.240321 -0.340852
615 1 0.0349577 0.372538 0.5 0.400911 -0.226704
616 1 0.172202 0.393248 0.5 0.728196 -0.434469
617 1 0.988562 0.360918 0.5 -0.803383 -0.440751
618 1 0.0926174 0.530876 0.5 -0.49395 0.386169
619 1 0.217872 0.539052 0.5 -0.223604 0.609495
620 1 0.20495 0.178548 0.5 0.272059 -0.557595
621 1 0.133023 0.244831 0.5 0.471977 0.687342
622 1 0.272006 0.475322 0.5 0.301848 0.597039
623 1 0.0922339 0.594651 0.5 0.285282 0.226928
624 1 0.360334 0.435585 0.5 0.112081 0.310435
625 1 0.111052 0.247592 0.5 0.0364623 -0.338233
626 1 0.94921 0.420799 0.5 0.187238 0.168386
627 1 0.187111 0.401831 0.5 0.646073 -0.165368
628 1 0.857086 0.369342 0.5 -0.562938 -0.0142696
629 1 0.031549 0.339739 0.5 -0.799058 -0.175556
630 1 0.350372 0.453067 0.5 -0.244569 0.833637
631 1 0.940556 0.596396 0.5 -0.492263 0.774982
632 1 0.494097 0.340309 0.5 0.73288 0.537015
633 1 0.358011 0.418554 0.5 -0.422852 -0.00114328
634 1 0.984406 0.209385 0.5 0.17094 -0.686235