ITEM: TIMESTEP
0
ITEM: NUMBER OF ATOMS
9945
ITEM: BOX BOUNDS pp pp pp
-5.8359999999999999e+01 5.8359999999999999e+01
-5.8359999999999999e+01 5.8359999999999999e+01
-5.0000000000000000e-01 5.0000000000000000e-01
ITEM: ATOMS id type xs ys zs c_002[1] c_002[2]
1 1 0.947075 0.276263 0.5 -0.526731 0.486916
2 1 0.231352 0.863172 0.5 0.378763 -0.49703
3 1 0.175972 0.132406 0.5 -0.670398 0.0553055
4 1 0.0615502 0.321849 0.5 -0.672775 0.512848
5 1 0.869762 0.278205 0.5 -0.396053 0.781172
6 1 0.881543 0.433985 0.5 0.645295 -0.640735
7 1 0.0912469 0.342346 0.5 -0.139824 -0.450871
8 1 0.251535 0.417775 0.5 0.643702 0.228681
9 1 0.177547 0.259628 0.5 0.0541793 -0.821202
10 1 0.887891 0.193185 0.5 0.232882 -0.496006
11 1 0.982849 0.0133374 0.5 0.109293 -0.725851
12 1 0.235616 0.389238 0.5 0.738907 0.337087
13 1 0.817824 0.173347 0.5 0.382797 0.902303
14 1 0.165754 0.343921 0.5 0.658024 0.457002
15 1 0.000395546 0.253912 0.5 -0.413326 0.159257
16 1 0.959155 0.250437 0.5 -0.188108 0.642991
17 1 0.914638 0.38458 0.5 0.688747 0.271345
18 1 0.978127 0.118269 0.5 -0.765215 0.268156
19 1 0.931576 0.288413 0.5 -0.481947 0.338192
20 1 0.890843 0.12363 0.5 -0.697936 0.375246
21 1 0.112259 0.174335 0.5 0.343944 -0.824322
22 1 0.875571 0.426384 0.5 0.546935 -0.819778
23 1 0.256939 0.880728 0.5 0.76546 -0.158365
24 1 0.0734398 0.346364 0.5 0.00421968 0.281867
25 1 0.976897 0.837603 0.5 0.0435407 -0.622392
26 1 0.385133 0.154516 0.5 -0.253714 -0.598139
27 1 0.85744 0.171304 0.5 0.626395 -0.480309
28 1 0.144053 0.32686 0.5 0.666949 -0.515527
29 1 0.234606 0.230876 0.5 -0.66938 -0.140435
30 1 0.214535 0.197181 0.5 -0.707881 -0.425512
31 1 0.291201 0.347635 0.5 -0.215807 -0.863562
32 1 0.135868 0.976213 0.5 0.553394 -0.470138
33 1 0.241398 0.204053 0.5 -0.863514 0.245686
34 1 0.939256 0.4144 0.5 -0.483148 -0.347529
35 1 0.192993 0.439644 0.5 0.34059 0.196288
36 1 0.254108 0.351205 0.5 -0.449047 -0.579293
37 1 0.0067896 0.31947 0.5 -0.0574642 0.708416
38 1 0.174748 0.446071 0.5 0.734496 0.487015
39 1 0.0187192 0.437765 0.5 0.0496342 -0.76604
40 1 0.25716 0.340471 0.5 -0.317268 -0.903702
41 1 0.941638 0.089527 0.5 -0.288019 -0.70353
42 1 0.858439 0.311856 0.5 -0.0743223 0.771418
43 1 0.126113 0.381955 0.5 0.839748 -0.381299
44 1 0.0811233 0.154816 0.5 0.685474 -0.100791
45 1 0.961839 0.301978 0.5 -0.366119 0.262485
46 1 0.0590135 0.349489 0.5 -0.377229 0.634877
47 1 0.114369 0.220155 0.5 0.270205 -0.891003
48 1 0.114794 0.297135 0.5 0.233334 0.528054
49 1 0.0144061 0.0345079 0.5 0.282006 -0.842071
50 1 0.669084 0.883111 0.5 -0.20812 0.135667
51 1 0.933935 0.157446 0.5 0.035904 -0.0994237
52 1 0.345562 0.215692 0.5 -0.354511 0.285469
53 1 0.185078 0.524125 0.5 -0.590448 -0.591368
54 1 0.253305 0.16692 0.5 -0.559447 -0.744539
55 1 0.137887 0.258024 0.5 0.285928 -0.665971
56 1 0.242708 0.095504 0.5 -0.537017 -0.389444
57 1 0.106788 0.460827 0.5 0.583615 0.0778655
58 1 0.922603 0.0829478 0.5 -0.180031 -0.180837
59 1 0.0498789 0.220309 0.5 -0.460394 -0.28649
60 1 0.906271 0.0183281 0.5 0.626933 -0.703121
61 1 0.268824 0.325242 0.5 -0.613306 -0.452866
62 1 0.00628003 0.151567 0.5 -0.329248 0.850214
63 1 0.259541 0.18301 0.5 -0.614714 -0.367895
64 1 0.763988 0.248861 0.5 0.626516 0.234428
65 1 0.0648783 0.135143 0.5 0.808967 0.0808395
66 1 0.0954792 0.528116 0.5 0.258936 -0.333667
67 1 0.978137 0.895368 0.5 0.189712 -0.662888
68 1 0.805222 0.408627 0.5 0.632561 -0.636058
69 1 0.230066 0.140486 0.5 0.00709243 -0.612274
70 1 0.178219 0.0868331 0.5 0.235437 -0.524131
71 1 0.904917 0.570685 0.5 -0.416148 0.805972
72 1 0.975561 0.217819 0.5 -0.311228 0.480507
73 1 0.271521 0.378944 0.5 0.337191 -0.11644
74 1 0.153106 0.370893 0.5 0.238957 -0.246435
75 1 0.265718 0.150451 0.5 -0.266656 -0.60107
76 1 0.770222 0.311541 0.5 -0.12377 0.966839
77 1 0.148916 0.29313 0.5 -0.353537 -0.190195
78 1 0.1225 0.2 0.5 0.592699 -0.729723
79 1 0.790216 0.240543 0.5 0.727059 0.337822
80 1 0.0246988 0.316776 0.5 0.0291575 0.964637
81 1 0.855992 0.301597 0.5 -0.0845395 0.58295
82 1 0.103788 0.297502 0.5 0.127931 0.527881
83 1 0.052744 0.272237 0.5 -0.618673 0.76702
84 1 0.852223 0.181811 0.5 0.631777 -0.673299
85 1 0.128366 0.400392 0.5 0.513824 -0.654114
86 1 0.0491127 0.915589 0.5 0.115316 -0.871993
87 1 0.904766 0.260556 0.5 -0.475411 0.81798
88 1 0.00860734 0.270351 0.5 -0.811976 0.523463
89 1 0.00803369 0.199921 0.5 -0.119282 0.910735
90 1 0.838039 0.192456 0.5 0.864666 0.125738
91 1 0.0979452 0.277202 0.5 0.313246 0.353318
92 1 0.881677 0.223157 0.5 -0.583562 -0.074347
93 1 0.977745 0.139586 0.5 -0.436948 0.358065
94 1 0.897829 0.106381 0.5 -0.297435 0.724494
95 1 0.905495 0.145362 0.5 0.630994 0.534264
96 1 0.182666 0.363261 0.5 0.660376 -0.356224
97 1 0.261744 0.37924 0.5 -0.282718 -0.377629
98 1 0.900849 0.136635 0.5 0.360752 -0.0226168
99 1 0.999585 0.266839 0.5 -0.779432 0.482017
100 1 0.137952 0.481584 0.5 0.297171 -0.863467
101 1 0.379908 0.137413 0.5 -0.424497 -0.837235
102 1 0.857347 0.113546 0.5 -0.0840082 -0.105435
103 1 0.249045 0.927785 0.5 -0.0499746 -0.324064
104 1 0.067828 0.239065 0.5 -0.677446 0.533529
105 1 0.0198819 0.333255 0.5 -0.445403 0.876173
106 1 0.246205 0.356413 0.5 -0.08915 -0.430511
107 1 0.831508 0.28782 0.5 -0.564241 0.620838
108 1 0.0539759 0.133399 0.5 0.786377 0.523762
109 1 0.186855 0.853443 0.5 0.676449 -0.687467
110 1 0.0656209 0.340743 0.5 -0.442269 0.412881
111 1 0.239369 0.336808 0.5 -0.47654 -0.29348
112 1 0.0124507 0.339788 0.5 -0.205188 0.97018
113 1 0.0328218 0.179217 0.5 -0.150378 0.720687
114 1 0.946537 0.28594 0.5 -0.187612 0.220718
115 1 0.062649 0.154261 0.5 0.627578 0.595045
116 1 0.994178 0.174812 0.5 -0.340221 0.794069
117 1 0.123451 0.452889 0.5 0.341562 0.184312
118 1 0.982897 0.292206 0.5 -0.807225 0.0278929
119 1 0.894417 0.183796 0.5 0.0939611 -0.615823
120 1 0.225469 0.0907195 0.5 -0.595869 -0.693946
121 1 0.126147 0.190839 0.5 0.0432672 -0.774529
122 1 0.0445692 0.323802 0.5 -0.166551 0.951112
123 1 0.959775 0.396975 0.5 -0.237895 -0.0936355
124 1 0.912476 0.351668 0.5 -0.133816 0.0962689
125 1 0.0334391 0.153624 0.5 -0.503961 -0.124184
126 1 0.89906 0.0107786 0.5 0.323062 -0.847714
127 1 0.982547 0.20931 0.5 -0.47394 0.632426
128 1 0.17015 0.150932 0.5 0.458321 -0.157002
129 1 0.12609 0.27314 0.5 -0.272965 0.0921427
130 1 0.227593 0.16004 0.5 -0.375086 -0.341252
131 1 0.196644 0.451013 0.5 -0.2943 0.490793
132 1 0.0313003 0.30959 0.5 -0.267551 0.708491
133 1 0.943142 0.210672 0.5 0.106392 0.106814
134 1 0.224761 0.169846 0.5 -0.469351 -0.805362
135 1 0.906416 0.344596 0.5 -0.624315 -0.0496689
136 1 0.250327 0.200281 0.5 -0.613503 0.1658
137 1 0.714013 0.227101 0.5 0.364718 0.133496
138 1 0.186506 0.161628 0.5 -0.395492 0.591723
139 1 0.0321442 0.242377 0.5 -0.753043 0.227599
140 1 0.0315499 0.3466 0.5 -0.579441 0.746261
141 1 0.185106 0.221126 0.5 -0.301433 -0.362656
142 1 0.143041 0.181973 0.5 -0.235695 0.20224
143 1 0.889983 0.0580903 0.5 0.345482 -0.890916
144 1 0.827337 0.0805137 0.5 -0.612503 0.14084
145 1 0.93205 0.0921391 0.5 0.0568077 -0.702143
146 1 0.0106322 0.173186 0.5 -0.551356 0.693685
147 1 0.165666 0.473297 0.5 0.448624 0.57014
148 1 0.831682 0.440446 0.5 0.0750826 -0.848397
149 1 0.0165879 0.264898 0.5 -0.94447 0.204428
150 1 0.03983 0.340588 0.5 -0.630068 0.696188
151 1 0.0362352 0.389581 0.5 -0.919486 -0.126693
152 1 0.00806907 0.132882 0.5 -0.417937 -0.466352
153 1 0.190102 0.502698 0.5 -0.0813076 -0.797339
154 1 0.895982 0.0961543 0.5 -0.573825 0.585076
155 1 0.996863 0.11938 0.5 -0.614764 0.190476
156 1 0.261805 0.310555 0.5 -0.138543 -0.36154
157 1 0.997408 0.0846054 0.5 0.263349 -0.681132
158 1 0.178385 0.347572 0.5 0.085687 -0.0395003
159 1 0.958992 0.113261 0.5 0.061903 0.478509
160 1 0.930425 0.00479546 0.5 0.176676 -0.570666
161 1 0.886479 0.253011 0.5 -0.40811 0.679063
162 1 0.0546449 0.18268 0.5 0.558292 -0.562461
163 1 0.917503 0.0605701 0.5 0.0654166 0.332395
164 1 0.00747936 0.238845 0.5 -0.440217 0.717341
165 1 0.88918 0.00236312 0.5 0.240847 -0.447499
166 1 0.171733 0.0946292 0.5 -0.136563 0.569598
167 1 0.215638 0.293285 0.5 -0.172253 0.0736005
168 1 0.862048 0.0158103 0.5 -0.52686 0.112859
169 1 0.0812623 0.317517 0.5 0.248874 0.293464
170 1 0.86385 0.244258 0.5 0.0204745 -0.524589
171 1 0.189248 0.345478 0.5 0.440884 -0.855494
172 1 0.940704 0.435862 0.5 0.191924 -0.446647
173 1 0.123304 0.421125 0.5 -0.608081 -0.354126
174 1 0.776808 0.137352 0.5 -0.406179 0.397528
175 1 0.965194 0.292863 0.5 -0.600927 0.0258512
176 1 0.396322 0.165615 0.5 0.171546 0.469799
177 1 0.161256 0.281148 0.5 -0.0519546 -0.981963
178 1 0.129737 0.224702 0.5 -0.100996 -0.577286
179 1 0.144949 0.137924 0.5 0.324857 0.783579
180 1 0.0290515 0.487632 0.5 0.0742487 -0.513059
181 1 0.0687393 0.144561 0.5 0.763935 0.205589
182 1 0.00533625 0.189842 0.5 -0.201972 0.957403
183 1 0.967524 0.0916048 0.5 -0.113891 -0.870588
184 1 0.159838 0.318874 0.5 0.0690059 -0.0807791
185 1 0.0231403 0.235171 0.5 -0.524467 0.346878
186 1 0.0354794 0.199851 0.5 0.299075 0.320478
187 1 0.0985328 0.242288 0.5 -0.290168 -0.00914496
188 1 0.154948 0.157082 0.5 0.460928 0.374347
189 1 0.0877335 0.248555 0.5 -0.809364 0.0720212
190 1 0.0644079 0.286164 0.5 -0.102386 0.942697
191 1 0.94694 0.121088 0.5 -0.482632 0.591532
192 1 0.903329 0.295964 0.5 -0.445155 0.723182
193 1 0.817308 0.250774 0.5 0.196503 0.304628
194 1 0.137975 0.299628 0.5 0.49411 -0.0368052
195 1 0.0594739 0.213255 0.5 -0.895659 -0.146725
196 1 0.16459 0.408835 0.5 0.864102 -0.0976892
197 1 0.0218333 0.342655 0.5 -0.458647 0.823883
198 1 0.194995 0.392116 0.5 0.912255 -0.140428
199 1 0.142982 0.308925 0.5 0.361464 -0.384052
200 1 0.120175 0.257429 0.5 -0.769931 -0.508372
201 1 0.00647347 0.952195 0.5 0.809585 -0.464132
202 1 0.0607933 0.245753 0.5 -0.423655 0.511814
203 1 0.983772 0.171672 0.5 -0.370777 0.82639
204 1 0.749233 0.172797 0.5 0.843303 -0.288633
205 1 0.125423 0.364208 0.5 0.817374 -0.523764
206 1 0.23258 0.175623 0.5 -0.713423 -0.5389
207 1 0.84579 0.244191 0.5 0.275244 0.196586
208 1 0.0492547 0.173686 0.5 0.733514 0.345417
209 1 0.931516 0.183839 0.5 0.687216 0.4044
210 1 0.120235 0.374026 0.5 0.755856 -0.497928
211 1 0.0616932 0.276066 0.5 -0.418454 0.824235
212 1 0.701436 0.138424 0.5 0.358916 -0.754234
213 1 0.941418 0.0584228 0.5 0.0167897 -0.686551
214 1 0.0839474 0.336291 0.5 -0.404964 -0.123637
215 1 0.290386 0.290903 0.5 0.104111 0.463111
216 1 0.94764 0.359363 0.5 -0.430787 -0.460326
217 1 0.911769 0.052788 0.5 0.179149 -0.509653
218 1 0.879922 0.416349 0.5 0.347879 -0.740672
219 1 0.0585447 0.302445 0.5 -0.61791 0.552073
220 1 0.00546415 0.0634794 0.5 -0.00776467 -0.857159
221 1 0.768248 0.174864 0.5 -0.0191931 0.306647
222 1 0.0147363 0.349264 0.5 -0.0993172 0.959343
223 1 0.061543 0.455347 0.5 0.978993 0.0322271
224 1 0.973718 0.416318 0.5 0.416081 -0.14141
225 1 0.866374 0.0842641 0.5 -0.65736 -0.534777
226 1 0.118833 0.279509 0.5 0.152048 0.568918
227 1 0.939399 0.0988996 0.5 0.354015 -0.757564
228 1 0.911693 0.235123 0.5 -0.555679 0.581709
229 1 0.863812 0.150931 0.5 -0.404938 -0.833418
230 1 0.0682236 0.305304 0.5 -0.535065 0.789887
231 1 0.0540433 0.932881 0.5 0.293138 -0.946653
232 1 0.334466 0.0957308 0.5 -0.169282 -0.291975
233 1 0.00311959 0.297466 0.5 -0.402513 0.454644
234 1 0.978616 0.362932 0.5 -0.644063 0.627784
235 1 0.153526 0.273872 0.5 -0.140969 -0.951193
236 1 0.601226 0.283392 0.5 0.546922 0.63459
237 1 9.51874e-05 0.392181 0.5 -0.832481 0.310004
238 1 0.131371 0.443579 0.5 0.475009 0.288914
239 1 0.0218762 0.223267 0.5 -0.53208 0.269834
240 1 0.122189 0.440742 0.5 -0.417099 0.03793
241 1 0.959058 0.133113 0.5 -0.474285 0.801929
242 1 0.982201 0.162083 0.5 -0.0938597 0.855501
243 1 0.110477 0.26106 0.5 -0.15604 -0.499748
244 1 0.00971809 0.280255 0.5 -0.764272 0.57163
245 1 0.0782833 0.143544 0.5 0.68182 0.319842
246 1 0.123633 0.135856 0.5 0.906623 0.338851
247 1 0.0608121 0.311808 0.5 -0.685127 0.556079
248 1 0.868504 0.978583 0.5 0.538078 -0.789283
249 1 0.0613395 0.189369 0.5 0.262518 -0.435927
250 1 0.0843963 0.326561 0.5 -0.277369 0.218563
251 1 0.0392584 0.172327 0.5 0.354617 0.777546
252 1 0.868939 0.255628 0.5 0.218575 -0.3776
253 1 0.802409 0.179621 0.5 0.694566 0.538747
254 1 0.269743 0.363106 0.5 -0.481807 -0.287351
255 1 0.995623 0.352036 0.5 -0.890952 0.145995
256 1 0.956229 0.319585 0.5 -0.20602 0.219141
257 1 0.977503 0.315532 0.5 0.368869 0.498472
258 1 0.00471606 0.308888 0.5 -0.252387 0.510593
259 1 0.0338109 0.142993 0.5 -0.528459 -0.19394
260 1 0.846463 0.173492 0.5 0.52025 -0.811057
261 1 0.109579 0.240853 0.5 -0.203436 -0.366904
262 1 0.167751 0.204253 0.5 0.128546 0.863508
263 1 0.0793142 0.243984 0.5 -0.711092 0.286494
264 1 0.847798 0.208384 0.5 0.33864 -0.0341903
265 1 0.0342375 0.357335 0.5 -0.493575 0.561962
266 1 0.0269801 0.38423 0.5 -0.868569 0.233568
267 1 0.203707 0.247498 0.5 0.393883 0.3119
268 1 0.104222 0.349884 0.5 0.0262702 -0.125974
269 1 0.869552 0.199241 0.5 -0.201968 -0.781491
270 1 0.178042 0.28953 0.5 0.504709 -0.0443272
271 1 0.29038 0.395737 0.5 0.634735 -0.65772
272 1 0.193867 0.296061 0.5 0.372056 -0.328112
273 1 0.198081 0.256702 0.5 0.963237 0.174545
274 1 0.878507 0.195027 0.5 -0.0858387 -0.824183
275 1 0.985403 0.346167 0.5 -0.782334 0.531421
276 1 0.116002 0.567148 0.5 0.490306 -0.524866
277 1 0.128776 0.20773 0.5 0.736138 -0.249187
278 1 0.243492 0.0429537 0.5 0.204563 0.106386
279 1 0.946111 0.828453 0.5 0.275657 -0.729648
280 1 0.962833 0.261894 0.5 -0.0950817 0.936701
281 1 0.95152 0.0772272 0.5 0.0275162 -0.432381
282 1 0.0149561 0.314573 0.5 -0.229498 0.665025
283 1 0.356573 0.247519 0.5 -0.442221 0.425269
284 1 0.0476499 0.230827 0.5 -0.481011 0.0576981
285 1 0.937493 0.929388 0.5 0.593391 -0.497718
286 1 0.0116153 0.419385 0.5 -0.905393 0.161265
287 1 0.138794 0.398152 0.5 0.490434 -0.113477
288 1 0.168279 0.288753 0.5 0.606963 -0.431244
289 1 0.34186 0.26078 0.5 -0.949084 0.018147
290 1 0.920535 0.00773169 0.5 0.254132 -0.673932
291 1 0.947294 0.314839 0.5 -0.0479325 0.559785
292 1 0.331982 0.14441 0.5 -0.389616 -0.846387
293 1 0.000548081 0.276517 0.5 -0.621325 0.748994
294 1 0.885212 0.300466 0.5 0.382994 0.864382
295 1 0.173466 0.122378 0.5 -0.0178895 0.102447
296 1 0.790843 0.418597 0.5 0.662458 -0.698325
297 1 0.659166 0.313001 0.5 -0.409781 0.895595
298 1 0.0598126 0.255927 0.5 -0.775949 0.38804
299 1 0.119714 0.356692 0.5 0.868185 -0.408489
300 1 0.955184 0.267926 0.5 -0.0750475 0.762401
301 1 0.115984 0.402565 0.5 -0.0353452 -0.618455
302 1 0.162624 0.0902539 0.5 -0.563143 0.431986
303 1 0.0114977 0.408137 0.5 -0.794699 0.445757
304 1 0.777317 0.278165 0.5 0.657743 0.435509
305 1 0.212812 0.274252 0.5 0.184558 -0.726039
306 1 0.978521 0.372883 0.5 -0.663732 0.608992
307 1 0.0163084 0.0616333 0.5 -0.140493 -0.898693
308 1 0.709777 0.21328 0.5 0.0830177 0.766368
309 1 0.233057 0.380064 0.5 -0.201363 0.0060162
310 1 0.102403 0.117945 0.5 0.771589 -0.16287
311 1 0.98026 0.05033 0.5 0.555098 -0.803975
312 1 0.314821 0.393172 0.5 0.367564 0.379923
313 1 0.959133 0.000875843 0.5 0.412285 -0.876794
314 1 0.115498 0.165034 0.5 0.575389 -0.163002
315 1 0.931734 0.536594 0.5 0.0230092 0.360009
316 1 0.922642 0.508525 0.5 -0.00286028 0.0327339
317 1 0.872245 0.436178 0.5 0.262591 -0.898326
318 1 0.821867 0.387815 0.5 0.612808 -0.314927
319 1 0.904553 0.449728 0.5 0.645501 -0.251112
320 1 0.991201 0.495661 0.5 -0.409522 0.771785
321 1 0.149089 0.465812 0.5 0.297301 0.299997
322 1 0.00882963 0.454594 0.5 -0.476246 0.823388
323 1 0.760734 0.517844 0.5 -0.331736 -0.0873954
324 1 0.863603 0.624814 0.5 0.977613 -0.121731
325 1 0.0567929 0.576644 0.5 0.792699 -0.173831
326 1 0.095907 0.30395 0.5 0.422913 0.207354
327 1 0.845681 0.494462 0.5 0.0148259 -0.896291
328 1 0.0946209 0.419675 0.5 -0.458905 -0.596964
329 1 0.889765 0.472291 0.5 0.0763962 -0.536386
330 1 0.104377 0.3683 0.5 0.445927 -0.707086
331 1 0.155166 0.473672 0.5 0.542008 0.342376
332 1 0.987248 0.317873 0.5 0.528597 0.638306
333 1 0.847586 0.419017 0.5 0.646139 -0.608591
334 1 0.941862 0.255974 0.5 -0.220932 0.935152
335 1 0.0272551 0.374559 0.5 -0.904767 0.0885469
336 1 0.144285 0.345525 0.5 0.490614 -0.32149
337 1 0.968835 0.321631 0.5 0.410905 0.555369
338 1 0.777697 0.30368 0.5 0.0127025 0.945782
339 1 0.121081 0.55866 0.5 0.244921 0.542834
340 1 0.0733973 0.367555 0.5 -0.101683 -0.270061
341 1 0.867703 0.351864 0.5 -0.329292 0.0417607
342 1 0.987315 0.366341 0.5 -0.65316 0.595581
343 1 0.0918746 0.284776 0.5 0.114449 0.648077
344 1 0.994954 0.428805 0.5 -0.685713 0.361071
345 1 0.989222 0.44727 0.5 -0.285547 0.852387
346 1 0.0515645 0.455449 0.5 0.504439 -0.396258
347 1 0.0430796 0.532073 0.5 0.189865 0.286711
348 1 0.077833 0.395503 0.5 -0.367742 -0.142077
349 1 0.728969 0.420604 0.5 -0.296499 -0.697951
350 1 0.00283765 0.433953 0.5 -0.199838 -0.0141916
351 1 0.779792 0.525691 0.5 0.360653 0.170243
352 1 0.0909702 0.471811 0.5 0.390626 -0.209988
353 1 0.281617 0.350393 0.5 -0.460644 -0.865547
354 1 0.120388 0.247081 0.5 -0.402241 0.164001
355 1 0.909445 0.589601 0.5 -0.374657 0.778684
356 1 0.196559 0.286076 0.5 0 0
357 1 0.795214 0.772049 0.5 -0.524734 -0.50434
358 1 0.334635 0.383988 0.5 0.695387 0.171065
359 1 0.857041 0.211385 0.5 0.00842289 -0.113376
360 1 0.135499 0.491457 0.5 -0.225999 -0.579543
361 1 0.830873 0.413347 0.5 0.571342 -0.674259
362 1 0.084085 0.531263 0.5 0.260123 -0.788322
363 1 0.955832 0.502845 0.5 -0.220436 0.170797
364 1 0.0338606 0.264111 0.5 -0.743801 0.641668
365 1 0.00334803 0.414409 0.5 -0.823431 0.235648
366 1 0.802771 0.389852 0.5 0.811909 -0.517412
367 1 0.764205 0.463573 0.5 -0.0534226 0.565477
368 1 0.901428 0.69501 0.5 0.209308 0.523269
369 1 0.90237 0.325964 0.5 0.0462083 0.479564
370 1 0.0300285 0.459873 0.5 0.753422 -0.0255689
371 1 0.0555084 0.376784 0.5 0.0826529 -0.101521
372 1 0.175142 0.428716 0.5 0.855651 -0.0926408
373 1 0.905246 0.358007 0.5 0.00767179 -0.536959
374 1 0.906289 0.393289 0.5 0.416489 -0.0535261
375 1 0.154555 0.457915 0.5 0.13993 0.198792
376 1 0.237032 0.327394 0.5 0.0237605 0.00149231
377 1 0.0463605 0.602608 0.5 0.16881 0.803001
378 1 0.997671 0.197304 0.5 -0.27188 0.861156
379 1 0.200747 0.344505 0.5 0.204456 -0.379595
380 1 0.798258 0.308365 0.5 0.515766 0.412841
381 1 0.900417 0.667046 0.5 0.732646 0.281735
382 1 0.0515979 0.317024 0.5 -0.527364 0.683458
383 1 0.235184 0.483256 0.5 -0.70463 -0.664019
384 1 0.960322 0.42596 0.5 -0.0642436 -0.52813
385 1 0.993835 0.41867 0.5 -0.734257 0.362733
386 1 0.924397 0.429603 0.5 0.497983 -0.832901
387 1 0.928121 0.449099 0.5 0.258142 -0.422501
388 1 0.10127 0.558333 0.5 0.886666 -0.0889169
389 1 0.231953 0.317929 0.5 -0.0350071 0.567552
390 1 0.886553 0.497921 0.5 0.0660052 -0.549975
391 1 0.1174 0.62358 0.5 0.383559 -0.0322538
392 1 0.193565 0.493474 0.5 0.200133 -0.73113
393 1 0.94955 0.559242 0.5 0.438924 0.455292
394 1 0.137861 0.416871 0.5 0.772785 -0.0165857
395 1 0.210515 0.416875 0.5 0.682742 -0.245032
396 1 0.808755 0.39821 0.5 0.595608 -0.734533
397 1 0.927645 0.420046 0.5 -0.00310524 -0.82574
398 1 0.0604663 0.409695 0.5 -0.229813 -0.216108
399 1 0.219054 0.335841 0.5 -0.478729 -0.727748
400 1 0.936894 0.587529 0.5 -0.0370487 0.862367
401 1 0.151781 0.304176 0.5 -0.672572 0.14392
402 1 0.919517 0.641218 0.5 0.905155 0.160012
403 1 0.868422 0.447593 0.5 0.444048 -0.522312
404 1 0.945497 0.450734 0.5 -0.588915 -0.141434
405 1 0.151611 0.353022 0.5 0.520815 -0.738344
406 1 0.0993443 0.482796 0.5 0.49452 -0.0501685
407 1 0.889125 0.415391 0.5 0.724177 -0.563959
408 1 0.0606993 0.398982 0.5 -0.0590154 0.196083
409 1 0.918268 0.466268 0.5 0.847882 -0.0958129
410 1 0.93233 0.484344 0.5 -0.0518828 0.344623
411 1 0.129434 0.127687 0.5 0.688495 0.531703
412 1 0.0574047 0.503146 0.5 0.11054 0.0880094
413 1 0.00435222 0.471536 0.5 -0.617703 0.679857
414 1 0.942689 0.519577 0.5 -0.577846 -0.185763
415 1 0.266779 0.451497 0.5 -0.479109 -0.813333
416 1 0.016188 0.448788 0.5 -0.195237 -0.0457954
417 1 0.207967 0.310486 0.5 -0.207749 -0.372145
418 1 0.132101 0.372367 0.5 0.704847 -0.0807076
419 1 0.717379 0.236573 0.5 0.0134723 0.467317
420 1 0.0828719 0.281855 0.5 -0.184455 0.729903
421 1 0.152736 0.391957 0.5 -0.0629932 -0.01686
422 1 0.0624485 0.363085 0.5 -0.308612 0.405777
423 1 0.786765 0.306826 0.5 0.282777 0.638747
424 1 0.788522 0.456683 0.5 -0.263637 -0.514631
425 1 0.847056 0.372003 0.5 0.0561127 -0.817391
426 1 0.841193 0.641918 0.5 0.861335 0.0118277
427 1 0.772092 0.395536 0.5 0.724754 -0.505783
428 1 0.981609 0.491719 0.5 -0.221445 0.876953
429 1 0.925577 0.26899 0.5 -0.470512 0.667107
430 1 0.0828895 0.347239 0.5 0.0208553 0.238574
431 1 0.811886 0.417981 0.5 0.685662 -0.38748
432 1 0.942824 0.606906 0.5 0.706782 0.517852
433 1 0.268827 0.282775 0.5 -0.764867 0.0440267
434 1 0.860189 0.482619 0.5 0.49827 -0.35767
435 1 0.913114 0.366672 0.5 0.361354 -0.306824
436 1 0.115288 0.32641 0.5 0.206854 0.108474
437 1 0.244058 0.479293 0.5 -0.592193 -0.573145
438 1 0.0982222 0.519104 0.5 0.403368 -0.528003
439 1 0.027782 0.326641 0.5 -0.370762 0.875797
440 1 0.971187 0.48831 0.5 -0.352145 0.844221
441 1 0.874681 0.298144 0.5 0.536133 0.807348
442 1 0.902876 0.648539 0.5 0.437781 0.252277
443 1 0.907489 0.515044 0.5 0.795748 0.295847
444 1 0.85363 0.428117 0.5 0.650779 -0.570128
445 1 0.834617 0.386927 0.5 0.244642 -0.559736
446 1 0.202662 0.438971 0.5 0.290707 -0.739388
447 1 0.995315 0.477174 0.5 -0.504996 0.710907
448 1 0.0531244 0.585775 0.5 -0.0644333 -0.342403
449 1 0.910244 0.64092 0.5 0.182942 0.0353587
450 1 0.963647 0.417043 0.5 0.574819 -0.314793
451 1 0.839328 0.235875 0.5 0.357043 0.0770144
452 1 0.1916 0.612009 0.5 -0.155597 0.666928
453 1 0.0685163 0.633274 0.5 -0.216398 0.225309
454 1 0.143024 0.408352 0.5 0.832885 0.395044
455 1 0.0501876 0.368714 0.5 0.0037864 -0.15399
456 1 0.0498988 0.252112 0.5 -0.742242 0.579353
457 1 0.0714702 0.455285 0.5 0.861687 -0.215701
458 1 0.912763 0.402917 0.5 0.679744 -0.513892
459 1 0.952047 0.377302 0.5 -0.00483215 -0.020455
460 1 0.0803084 0.384837 0.5 -0.660748 -0.50091
461 1 0.809623 0.35258 0.5 0.556601 -0.296326
462 1 0.872658 0.521757 0.5 -0.810145 -0.0285831
463 1 0.0917244 0.312604 0.5 0.48206 -0.085692
464 1 0.352283 0.223592 0.5 -0.320854 0.124043
465 1 0.994233 0.340109 0.5 -0.626445 0.121901
466 1 0.0614553 0.513284 0.5 0.500158 -0.343447
467 1 0.0432134 0.522479 0.5 -0.265335 0.247916
468 1 0.303112 0.411868 0.5 0.414031 -0.227243
469 1 0.0192585 0.297228 0.5 -0.338768 0.552248
470 1 0.865374 0.342625 0.5 -0.212258 0.469035
471 1 0.114094 0.45404 0.5 0.635267 0.166143
472 1 0.0697728 0.411723 0.5 -0.0495838 -0.521059
473 1 0.93146 0.474831 0.5 -0.325207 0.585241
474 1 0.804612 0.36136 0.5 0.675855 -0.541799
475 1 0.909367 0.55283 0.5 0.134124 0.89536
476 1 0.863884 0.456218 0.5 0.793558 -0.355479
477 1 0.192525 0.335135 0.5 0.0617057 -0.967072
478 1 0.829334 0.348927 0.5 -0.0884963 -0.912514
479 1 0.906328 0.54339 0.5 0.413588 0.786846
480 1 0.981036 0.383037 0.5 -0.526921 0.490085
481 1 0.904541 0.432002 0.5 0.479311 -0.755002
482 1 0.90048 0.415238 0.5 0.333366 -0.689028
483 1 0.0119438 0.429693 0.5 -0.491293 -0.397725
484 1 0.0166455 0.369402 0.5 -0.823216 0.218206
485 1 0.0472313 0.466868 0.5 0.72898 -0.434055
486 1 0.363421 0.12386 0.5 -0.718927 -0.60252
487 1 0.88416 0.507312 0.5 -0.434732 -0.458517
488 1 0.265343 0.423586 0.5 -0.103686 -0.499113
489 1 0.0567527 0.446711 0.5 0.30745 -0.235537
490 1 0.098876 0.635557 0.5 0.481506 -0.424271
491 1 0.968569 0.359221 0.5 -0.793516 0.497486
492 1 0.14151 0.276806 0.5 -0.164332 -0.510351
493 1 0.875857 0.454451 0.5 0.435393 -0.592928
494 1 0.841151 0.47457 0.5 -0.0595499 -0.0735093
495 1 0.740516 0.292212 0.5 0.00305115 0.733863
496 1 0.0440804 0.375982 0.5 0.0244298 0.166173
497 1 0.923053 0.248815 0.5 -0.729875 0.580869
498 1 0.885694 0.453815 0.5 0.192234 -0.625095
499 1 0.831224 0.734629 0.5 0.137549 0.688985
500 1 0.00562065 0.481278 0.5 -0.451239 0.83047
501 1 0.0676331 0.503326 0.5 0.808216 -0.156851
502 1 0.0820684 0.272233 0.5 -0.0606819 0.10224
503 1 0.914414 0.474978 0.5 -0.237995 -0.119563
504 1 0.0363878 0.599816 0.5 0.500906 0.57079
505 1 0.108144 0.632703 0.5 -0.478545 0.0934901
506 1 0.0865951 0.402954 0.5 -0.667852 -0.196603
507 1 0.0395688 0.565805 0.5 0.641483 0.38303
508 1 0.906012 0.334831 0.5 0.0985285 0.475621
509 1 0.028049 0.394532 0.5 -0.618882 0.450067
510 1 0.138472 0.554961 0.5 -0.419414 0.84885
511 1 0.762735 0.497935 0.5 -0.805741 0.144505
512 1 0.784551 0.366224 0.5 0.533533 -0.547495
513 1 0.0860177 0.30439 0.5 -0.0181613 0.102485
514 1 0.833915 0.459039 0.5 0.0487797 -0.553303
515 1 0.881421 0.465521 0.5 0.305444 -0.182188
516 1 0.244429 0.570291 0.5 -0.730628 0.559041
517 1 0.983433 0.50133 0.5 -0.486643 0.580317
518 1 0.856126 0.354899 0.5 -0.55061 0.024271
519 1 0.0512169 0.403773 0.5 -0.321674 -0.594404
520 1 0.898018 0.497162 0.5 0.820587 -0.0127932
521 1 0.0958768 0.443282 0.5 0.0438013 -0.212709
522 1 0.991778 0.50643 0.5 -0.430193 0.54179
523 1 0.957699 0.446578 0.5 -0.0576425 -0.512596
524 1 0.113575 0.316202 0.5 0.117597 0.667205
525 1 0.424094 0.264127 0.5 -0.695893 0.676037
526 1 0.121343 0.391973 0.5 0.549357 -0.609413
527 1 0.0091105 0.565328 0.5 -0.0778337 0.118276
528 1 0.958943 0.474441 0.5 -0.34958 0.876401
529 1 0.2409 0.398573 0.5 0.948368 0.0482826
530 1 0.0873764 0.17993 0.5 0.309917 -0.339255
531 1 0.085572 0.569255 0.5 0.708332 -0.442447
532 1 0.90281 0.240431 0.5 -0.725061 0.514929
533 1 0.018878 0.459135 0.5 0.276123 0.359579
534 1 0.0565072 0.337815 0.5 -0.282253 0.900698
535 1 0.881947 0.525905 0.5 -0.112778 -0.109842
536 1 0.812146 0.388281 0.5 0.71291 -0.58438
537 1 0.427775 0.372739 0.5 0.379989 0.6828
538 1 0.956592 0.342348 0.5 0.150381 0.351104
539 1 0.869467 0.418974 0.5 0.663249 -0.442859
540 1 0.821226 0.369705 0.5 0.815695 -0.339289
541 1 0.119533 0.482942 0.5 0.241035 0.304346
542 1 0.875629 0.502543 0.5 -0.0580641 -0.690903
543 1 0.896796 0.577384 0.5 -0.34112 0.825411
544 1 0.207344 0.286415 0.5 0.107019 -0.405605
545 1 0.905122 0.478591 0.5 -0.0720865 -0.664982
546 1 0.0898445 0.591 0.5 -0.0534565 -0.0305889
547 1 0.769057 0.435504 0.5 -0.733178 0.413002
548 1 0.962651 0.329895 0.5 0.692881 -0.0829751
549 1 0.78767 0.482453 0.5 0.0768524 0.679748
550 1 0.920565 0.440314 0.5 0.541281 -0.329313
551 1 0.0373189 0.294872 0.5 -0.584952 0.464107
552 1 0.103177 0.493209 0.5 0.690317 0.21811
553 1 0.91271 0.298423 0.5 -0.478912 0.79048
554 1 0.0154335 0.615969 0.5 0 0
555 1 0.866726 0.491927 0.5 0.544577 -0.158416
556 1 0.0961899 0.321022 0.5 0.511449 -0.151267
557 1 0.119283 0.308354 0.5 0.740157 0.468676
558 1 0.0118795 0.46565 0.5 -0.358202 0.82537
559 1 0.916938 0.748413 0.5 0.200235 -0.226381
560 1 0.123281 0.290207 0.5 0.143452 0.797625
561 1 0.825655 0.403992 0.5 0.63069 -0.635154
562 1 0.0160697 0.485562 0.5 -0.303739 0.701323
563 1 0.965509 0.505663 0.5 0.226533 0.526808
564 1 0.151303 0.335678 0.5 0.842615 -0.278884
565 1 0.1056 0.747353 0.5 -0.44748 -0.397002
566 1 0.00140218 0.460875 0.5 -0.460111 0.830036
567 1 0.0921952 0.57782 0.5 0.515555 -0.628576
568 1 0.707327 0.393217 0.5 -0.267425 -0.66996
569 1 0.185099 0.427937 0.5 0.822099 -0.228942
570 1 0.920707 0.359751 0.5 0.146719 -0.0571148
571 1 0.0645115 0.331362 0.5 -0.58556 0.697289
572 1 0.108118 0.502199 0.5 0.975122 -0.0147386
573 1 0.798143 0.350871 0.5 0.442408 -0.485741
574 1 0.975774 0.342115 0.5 -0.532236 0.69826
575 1 0.784263 0.468143 0.5 0.370257 -0.504601
576 1 0.972047 0.72117 0.5 -0.460139 0.117321
577 1 0.107559 0.396908 0.5 -0.536332 -0.429122
578 1 0.917774 0.421629 0.5 0.536537 -0.809742
579 1 0.0191218 0.285692 0.5 -0.824207 0.45763
580 1 0.949506 0.470941 0.5 -0.274998 0.926051
581 1 0.896508 0.396668 0.5 0.451631 -0.19396
582 1 0.748765 0.557127 0.5 -0.454244 -0.617474
583 1 0.277209 0.289305 0.5 -0.327746 -0.38759
584 1 0.0483758 0.384551 0.5 -0.0717853 -0.0241597
585 1 0.895863 0.359505 0.5 0.0791797 -0.369379
586 1 0.985702 0.424766 0.5 -0.0974002 0.581868
587 1 0.887566 0.354938 0.5 -0.270185 -0.234939
588 1 0.852807 0.409847 0.5 0.400914 -0.579627
589 1 0.931204 0.524593 0.5 -0.747795 -0.333392
590 1 0.183775 0.266991 0.5 0.461208 -0.852831
591 1 0.241907 0.441328 0.5 -0.695055 -0.647127
592 1 0.864589 0.376461 0.5 0.243522 -0.360028
593 1 0.102802 0.577563 0.5 0.699273 -0.620303
594 1 0.287172 0.3687 0.5 -0.00658209 -0.712877
595 1 0.0179722 0.709788 0.5 -0.345549 -0.716589
596 1 0.140021 0.462579 0.5 0.294684 0.0847716
597 1 0.845494 0.403455 0.5 0.506225 -0.428123
598 1 0.253587 0.362867 0.5 -0.57723 -0.612591
599 1 0.00210294 0.217834 0.5 -0.349288 0.861833
600 1 0.0698383 0.269454 0.5 -0.430272 0.77828
601 1 0.678067 0.321677 0.5 -0.514742 0.600868
602 1 0.745185 0.643337 0.5 0.808619 -0.28991
603 1 0.932361 0.568259 0.5 0.575257 0.743838
604 1 0.850257 0.437791 0.5 0.621653 -0.579541
605 1 0.283855 0.328373 0.5 -0.188548 -0.673856
606 1 0.0404092 0.431494 0.5 -0.109653 -0.806137
607 1 0.1363 0.501359 0.5 -0.161899 -0.405013
608 1 0.336775 0.351183 0.5 -0.285658 -0.747059
609 1 0.132237 0.42496 0.5 0.26391 0.392217
610 1 0.172864 0.29727 0.5 0.555222 -0.0419408
611 1 0.808504 0.457788 0.5 -0.456683 -0.238814
612 1 0.872988 0.408832 0.5 0.188892 -0.438618
613 1 0.055063 0.489052 0.5 -0.459019 0.0816649
614 1 0.11866 0.181592 0.5 0.332667 -0.914128
615 1 0.0170203 0.379566 0.5 -0.789927 0.391414
616 1 0.120206 0.462098 0.5 0.144434 0.189213
617 1 0.95957 0.437058 0.5 -0.796309 -0.44695
618 1 0.998599 0.588531 0.5 0.67367 -0.0369794
619 1 0.21723 0.493035 0.5 -0.332897 0.0447766
620 1 0.15049 0.381749 0.5 -0.277694 -0.13507
621 1 0.0273412 0.279807 0.5 -0.826708 0.526401
622 1 0.202526 0.627377 0.5 -0.582968 0.424657
623 1 0.0414195 0.611427 0.5 0.137257 0.723434
624 1 0.108425 0.278257 0.5 0.692166 0.594539
625 1 0.124298 0.347313 0.5 0.606172 0.20627
626 1 0.832223 0.316009 0.5 0.428825 0.378875
627 1 0.129326 0.46405 0.5 0.521056 0.37695
628 1 0.841622 0.518441 0.5 0.227442 0.229608
629 1 0.958931 0.408341 0.5 0.386603 -0.393864
630 1 0.247326 0.458504 0.5 -0.0345677 -0.903416
631 1 0.92641 0.54612 0.5 0.564093 0.4998
632 1 0.267874 0.292258 0.5 -0.110999 -0.450205
633 1 0.324065 0.366323 0.5 0.777041 -0.25963