ITEM: TIMESTEP
0
ITEM: NUMBER OF ATOMS
9945
ITEM: BOX BOUNDS pp pp pp
-5.8359999999999999e+01 5.8359999999999999e+01
-5.8359999999999999e+01 5.8359999999999999e+01
-5.0000000000000000e-01 5.0000000000000000e-01
ITEM: ATOMS id type xs ys zs c_002[1] c_002[2]
1 1 0.7428 0.264212 0.5 0.62361 -0.539127
2 1 0.52865 0.545608 0.5 0 0
3 1 0.955096 0.758607 0.5 0.421984 0.171089
4 1 0.573802 0.966742 0.5 0.793537 -0.000517458
5 1 0.479888 0.634941 0.5 0.669025 -0.125839
6 1 0.0611947 0.429649 0.5 0.785574 0.0137472
7 1 0.455797 0.766992 0.5 0.174494 0.336558
8 1 0.806684 0.079043 0.5 0.344076 -0.25285
9 1 0.23689 0.39563 0.5 -0.396387 -0.551781
10 1 0.918109 0.0179747 0.5 0.827875 -0.55319
11 1 0.994648 0.713927 0.5 -0.118463 -0.0179388
12 1 0.335236 0.621273 0.5 0.575175 -0.396842
13 1 0.894922 0.612842 0.5 -0.162135 -0.0866296
14 1 0.711311 0.275931 0.5 0.291325 -0.444748
15 1 0.619832 0.208844 0.5 -0.696995 0.170307
16 1 0.736593 0.184993 0.5 -0.231228 -0.522146
17 1 0.824686 0.832601 0.5 0.550274 0.21506
18 1 0.909936 0.280389 0.5 0.365103 0.542825
19 1 0.1086 0.805877 0.5 -0.128461 0.0118859
20 1 0.427885 0.958913 0.5 0.365098 -0.137266
21 1 0.486891 0.37861 0.5 -0.0760985 -0.639651
22 1 0.050436 0.679999 0.5 -0.296499 0.235973
23 1 0.247213 0.542139 0.5 -0.765838 -0.349074
24 1 0.896492 0.0182537 0.5 0.665311 0.345421
25 1 0.875326 0.613799 0.5 -0.202945 0.449422
26 1 0.43468 0.0111866 0.5 0.70251 0.368264
27 1 0.735111 0.322189 0.5 0.742042 0.136607
28 1 0.526838 0.555391 0.5 -0.39821 -0.281144
29 1 0.289966 0.860091 0.5 -0.516881 -0.336878
30 1 0.411478 0.387117 0.5 0.0780069 0.0393823
31 1 0.560153 0.89824 0.5 0.279393 -0.594547
32 1 0.0413793 0.649839 0.5 -0.727766 0.29695
33 1 0.869677 0.386146 0.5 0.270423 0.749069
34 1 0.21979 0.368238 0.5 -0.47497 -0.730913
35 1 0.945505 0.335189 0.5 0.147275 0.667182
36 1 0.00765569 0.213564 0.5 0.320731 -0.632859
37 1 0.429121 0.520648 0.5 -0.708299 -0.0799341
38 1 0.166966 0.512934 0.5 -0.353044 -0.738048
39 1 0.489645 0.16937 0.5 0.841326 0.0595759
40 1 0.634103 0.862883 0.5 0.526544 -0.314135
41 1 0.176542 0.752881 0.5 -0.271077 -0.188146
42 1 0.61025 0.550944 0.5 -0.711211 0.157927
43 1 0.170435 0.360651 0.5 0.939805 0.26642
44 1 0.0781861 0.497801 0.5 -0.156013 -0.186098
45 1 0.85662 0.129955 0.5 0.86531 0.249243
46 1 0.238717 0.650123 0.5 -0.585365 0.189835
47 1 0.00437658 0.781735 0.5 -0.2212 -0.57066
48 1 0.821731 0.613254 0.5 -0.394853 0.77193
49 1 0.725321 0.189583 0.5 -0.146107 -0.206593
50 1 0.939318 0.2232 0.5 -0.447524 -0.709291
51 1 0.978109 0.149703 0.5 0.0226734 -0.739233
52 1 0.603826 0.34341 0.5 -0.235405 0.545829
53 1 0.617012 0.619037 0.5 0.0772471 -0.501286
54 1 0.113275 0.488046 0.5 0.434861 -0.222278
55 1 0.56721 0.384614 0.5 -0.123989 -0.263408
56 1 0.721464 0.766928 0.5 -0.962369 0.0860218
57 1 0.140249 0.422949 0.5 -0.678645 -0.420812
58 1 0.555046 0.250088 0.5 0.910279 -0.301119
59 1 0.598217 0.832476 0.5 0.440157 -0.766746
60 1 0.688806 0.0470371 0.5 -0.268251 0.138694
61 1 0.935863 0.732186 0.5 0.0501919 0.452753
62 1 0.956998 0.749181 0.5 0.386791 0.26522
63 1 0.718406 0.351872 0.5 -0.499637 -0.371533
64 1 0.551655 0.711722 0.5 0.454772 -0.72448
65 1 0.296134 0.46452 0.5 -0.181965 0.133559
66 1 0.397224 0.810887 0.5 -0.348971 -0.246327
67 1 0.341616 0.828326 0.5 0.218117 0.309028
68 1 0.241628 0.827285 0.5 0.437739 -0.0333219
69 1 0.00346207 0.620764 0.5 -0.284268 0.506
70 1 0.338474 0.502394 0.5 -0.861447 -0.0314347
71 1 0.565625 0.811316 0.5 -0.274214 -0.885681
72 1 0.401421 0.694445 0.5 0.0824413 -0.123284
73 1 0.242393 0.672249 0.5 -0.0595338 -0.288512
74 1 0.0735921 0.0332921 0.5 -0.33154 -0.722366
75 1 0.00803071 0.926689 0.5 -0.465288 0.13882
76 1 0.702836 0.633164 0.5 0.280875 -0.717854
77 1 0.376481 0.526815 0.5 -0.433042 -0.797404
78 1 0.838893 0.0446793 0.5 -0.136778 0.951591
79 1 0.360471 0.722852 0.5 -0.19833 0.241362
80 1 0.0412472 0.0704412 0.5 0.254043 -0.152767
81 1 0.824195 0.10108 0.5 0.918865 -0.0702606
82 1 0.364871 0.432586 0.5 -0.74013 -0.244747
83 1 0.0315843 0.8659 0.5 0.413314 0.768408
84 1 0.530796 0.29592 0.5 0.0207888 0.850196
85 1 0.255037 0.787172 0.5 -0.369735 -0.387892
86 1 0.348948 0.123591 0.5 0.306608 0.690534
87 1 0.721851 0.642627 0.5 0.398848 -0.204223
88 1 0.878883 0.389534 0.5 0.241069 0.566532
89 1 0.0226238 0.203221 0.5 -0.0944631 -0.90937
90 1 0.572798 0.00297255 0.5 0.811911 -0.518986
91 1 0.782981 0.171398 0.5 -0.854159 -0.359772
92 1 0.325641 0.31069 0.5 0.747683 -0.0659695
93 1 0.713552 0.137747 0.5 0.190558 -0.704541
94 1 0.234001 0.484472 0.5 0.0852324 -0.959036
95 1 0.728007 0.142182 0.5 0.24782 -0.614196
96 1 0.836313 0.207247 0.5 0.541945 -0.0589824
97 1 0.704044 0.788817 0.5 -0.468467 0.345415
98 1 0.313663 0.14578 0.5 0.319654 0.444634
99 1 0.735472 0.0791692 0.5 0.327558 -0.882485
100 1 0.96872 0.805379 0.5 -0.127823 0.648511
101 1 0.929167 0.738817 0.5 -0.17954 0.15665
102 1 0.655672 0.796802 0.5 0.853822 -0.226665
103 1 0.988196 0.844198 0.5 -0.186319 -0.0728171
104 1 0.339026 0.402234 0.5 0.110621 -0.618087
105 1 0.384631 0.427818 0.5 0.449603 -0.556918
106 1 0.0647137 0.854493 0.5 0.227743 0.554782
107 1 0.219407 0.15065 0.5 -0.0855831 -0.0895279
108 1 0.921675 0.253231 0.5 0.326883 -0.214537
109 1 0.188977 0.200807 0.5 -0.0621536 0.282861
110 1 0.923972 0.322141 0.5 -0.286163 0.810318
111 1 0.0106558 0.905776 0.5 0.111148 -0.504345
112 1 0.802541 0.532112 0.5 -0.224313 0.76742
113 1 0.613221 0.506583 0.5 -0.721278 0.340051
114 1 0.213856 0.294008 0.5 0.887934 -0.370913
115 1 0.421424 0.177453 0.5 0.361825 0.750997
116 1 0.781883 0.915738 0.5 0.687977 -0.577148
117 1 0.551887 0.382709 0.5 -0.277282 -0.67927
118 1 0.262196 0.0148172 0.5 0.00505796 -0.106662
119 1 0.0607775 0.173271 0.5 -0.265656 -0.589643
120 1 0.367848 0.0635315 0.5 0.927413 0.156205
121 1 0.903466 0.901946 0.5 -0.654339 0.578286
122 1 0.786119 0.0492247 0.5 0.128192 -0.16762
123 1 0.797484 0.22789 0.5 -0.354107 0.048133
124 1 0.382635 0.756861 0.5 -0.547914 -0.831484
125 1 0.470053 0.419673 0.5 0.322008 -0.243038
126 1 0.627045 0.180481 0.5 -0.660417 0.105861
127 1 0.540595 0.144301 0.5 -0.239622 -0.337675
128 1 0.757762 0.633305 0.5 -0.706033 0.218552
129 1 0.543759 0.280964 0.5 0.332495 0.131555
130 1 0.799811 0.310784 0.5 -0.866841 -0.331124
131 1 0.0378361 0.562612 0.5 0.0739394 -0.462209
132 1 0.652977 0.456678 0.5 -0.421594 0.30196
133 1 0.631366 0.0460903 0.5 0.256082 -0.816344
134 1 0.162401 0.544206 0.5 -0.227041 -0.83164
135 1 0.540164 0.183551 0.5 -0.0149407 0.62871
136 1 0.876501 0.887917 0.5 -0.480137 0.72257
137 1 0.0565852 0.606795 0.5 -0.585233 0.396798
138 1 0.475586 0.699525 0.5 0.0485405 -0.788261
139 1 0.739293 0.593458 0.5 -0.600381 0.12689
140 1 0.850636 0.685008 0.5 0.381792 0.692971
141 1 0.059493 0.639463 0.5 -0.839748 0.234579
142 1 0.289521 0.570183 0.5 -0.661151 -0.244411
143 1 0.562494 0.861899 0.5 0.522908 0.156858
144 1 0.699 0.174979 0.5 -0.0734325 0.459522
145 1 0.712589 0.443659 0.5 -0.304334 -0.654923
146 1 0.89197 0.795797 0.5 -0.198673 0.444769
147 1 0.0754813 0.337518 0.5 -0.179001 0.835628
148 1 0.358962 0.246705 0.5 0.218765 -0.26596
149 1 0.159842 0.809581 0.5 -0.0286203 0.225348
150 1 0.962256 0.207593 0.5 -0.0645113 -0.843681
151 1 0.563769 0.326783 0.5 -0.337135 0.70194
152 1 0.801808 0.42095 0.5 0.187801 0.789003
153 1 0.308212 0.537636 0.5 -0.556047 0.265143
154 1 0.552827 0.447966 0.5 -0.620727 0.578854
155 1 0.991979 0.99093 0.5 -0.188949 -0.120187
156 1 0.60546 0.672751 0.5 0.350305 0.127471
157 1 0.971973 0.348752 0.5 0.0884025 0.875807
158 1 0.846092 0.152038 0.5 0.598398 -0.378794
159 1 0.410298 0.479852 0.5 -0.455838 0.533591
160 1 0.514049 0.701718 0.5 -0.117875 -0.919624
161 1 0.354441 0.617446 0.5 -0.583916 -0.650922
162 1 0.273028 0.55 0.5 -0.825962 -0.380072
163 1 0.182757 0.97278 0.5 0.0395616 -0.692405
164 1 0.936543 0.548878 0.5 -0.297778 -0.641756
165 1 0.73366 0.415376 0.5 -0.295528 -0.818125
166 1 0.499785 0.613101 0.5 0.60664 -0.443608
167 1 0.372907 0.545869 0.5 -0.463965 -0.821998
168 1 0.738512 0.583278 0.5 -0.64571 0.622877
169 1 0.0317362 0.172578 0.5 -0.494174 -0.615801
170 1 0.903498 0.11538 0.5 0.559923 -0.26112
171 1 0.771307 0.843215 0.5 -0.437474 -0.674028
172 1 0.0578653 0.554749 0.5 -0.77091 0.0824932
173 1 0.423153 0.0726563 0.5 0.873886 -0.0113272
174 1 0.614326 0.654464 0.5 0.687847 0.508119
175 1 0.873525 0.267115 0.5 0.77706 0.0115704
176 1 0.899489 0.44856 0.5 0.0369176 0.827453
177 1 0.683878 0.362878 0.5 -0.569502 -0.119988
178 1 0.602592 0.778336 0.5 0.0238027 -0.269476
179 1 0.127235 0.911215 0.5 0.311554 0.786349
180 1 0.35819 0.523088 0.5 -0.754109 -0.150137
181 1 0.487758 0.41033 0.5 -0.565184 -0.214607
182 1 0.126812 0.798309 0.5 0.304167 0.0885043
183 1 0.124038 0.309027 0.5 -0.18493 -0.125952
184 1 0.345641 0.621767 0.5 0.000800888 -0.356902
185 1 0.362251 0.655231 0.5 -0.17293 -0.565239
186 1 0.237529 0.463239 0.5 -0.555209 -0.512311
187 1 0.310582 0.909113 0.5 0.516605 0.252335
188 1 0.969577 0.814734 0.5 -0.49142 0.374283
189 1 0.7096 0.229192 0.5 -0.623219 -0.454809
190 1 0.33898 0.703039 0.5 -0.281607 -0.203157
191 1 0.615427 0.962953 0.5 0.46525 -0.672431
192 1 0.036313 0.0621588 0.5 -0.353882 -0.27212
193 1 0.329298 0.420919 0.5 -0.917684 0.287742
194 1 0.343278 0.883078 0.5 0.794448 -0.118211
195 1 0.209126 0.862412 0.5 -0.640932 0.225776
196 1 0.552001 0.740011 0.5 -0.0920069 -0.692908
197 1 0.36854 0.927977 0.5 0.773879 -0.0973169
198 1 0.149866 0.85951 0.5 0.24987 -0.241425
199 1 0.622382 0.970262 0.5 0.15538 -0.240288
200 1 0.624318 0.625 0.5 -0.427075 -0.0798212
201 1 0.504996 0.844462 0.5 -0.634815 -0.508133
202 1 0.241933 0.178884 0.5 0.0636109 0.862617
203 1 0.814357 0.177553 0.5 -0.552177 0.24546
204 1 0.104536 0.907729 0.5 0.0690961 0.542857
205 1 0.69454 0.588984 0.5 -0.571809 0.626395
206 1 0.276815 0.156885 0.5 0.110401 0.804806
207 1 0.333961 0.925242 0.5 0.373965 0.132359
208 1 0.490514 0.341224 0.5 0.171978 -0.737036
209 1 0.00520036 0.197104 0.5 0.285232 -0.888439
210 1 0.184999 0.33173 0.5 0.694925 -0.410774
211 1 0.36783 0.890513 0.5 0.45279 -0.261012
212 1 0.833422 0.871935 0.5 -0.0434351 0.0725836
213 1 0.13409 0.891832 0.5 -0.400208 -0.159855
214 1 0.0140567 0.117092 0.5 0.928668 0.133777
215 1 0.694106 0.490008 0.5 0.442335 -0.332649
216 1 0.432334 0.613436 0.5 0.451196 -0.65863
217 1 0.223757 0.742494 0.5 -0.662083 -0.0361795
218 1 0.642587 0.681399 0.5 -0.926835 0.258285
219 1 0.45039 0.243514 0.5 -0.317071 -0.628543
220 1 0.0963002 0.459509 0.5 0.326819 -0.317555
221 1 0.994946 0.226341 0.5 -0.124382 -0.691005
222 1 0.389178 0.66203 0.5 -0.439848 -0.604846
223 1 0.356455 0.228042 0.5 0.477387 0.785892
224 1 0.119401 0.859875 0.5 0.776237 0.201892
225 1 0.331393 0.0532227 0.5 0.705013 0.400293
226 1 0.472578 0.285966 0.5 -0.349578 0.333425
227 1 0.900943 0.522998 0.5 -0.0424012 0.611984
228 1 0.79134 0.304468 0.5 -0.939775 -0.254378
229 1 0.676318 0.0582937 0.5 0.513276 -0.728494
230 1 0.0146605 0.145561 0.5 0.529997 0.201241
231 1 0.677281 0.257717 0.5 -0.205346 -0.430594
232 1 0.249454 0.807514 0.5 0.379839 -0.606728
233 1 0.232816 0.0239005 0.5 0.677353 -0.27881
234 1 0.99585 0.811153 0.5 -0.376398 0.745155
235 1 0.381782 0.408346 0.5 0.0777033 -0.839387
236 1 0.812788 0.384888 0.5 0.588813 -0.349096
237 1 0.680192 0.696344 0.5 -0.337645 0.698987
238 1 0.852922 0.860257 0.5 -0.769644 0.581145
239 1 0.616212 0.68283 0.5 0.35499 -0.42455
240 1 0.0590682 0.0179427 0.5 -0.480488 0.0421256
241 1 0.872409 0.158004 0.5 0.90254 0.235448
242 1 0.234039 0.0614721 0.5 0.176955 -0.465572
243 1 0.0937437 0.152656 0.5 -0.388958 -0.331238
244 1 0.616638 0.0962499 0.5 0.50748 -0.767382
245 1 0.399255 0.41491 0.5 0.246823 -0.392633
246 1 0.263335 0.796791 0.5 0.0763231 -0.796643
247 1 0.638881 0.356142 0.5 -0.293367 -0.637168
248 1 0.695934 0.165723 0.5 0.0972339 0.367615
249 1 0.40096 0.68061 0.5 0.0955898 -0.387927
250 1 0.622531 0.924729 0.5 0.228922 -0.114795
251 1 0.120813 0.0676048 0.5 0.834368 -0.163661
252 1 0.659416 0.426528 0.5 -0.238371 0.123449
253 1 0.043562 0.923699 0.5 -0.131843 0.558864
254 1 0.0382493 0.114545 0.5 -0.641277 -0.474742
255 1 0.993874 0.165213 0.5 -0.0284155 -0.411203
256 1 0.299002 0.663224 0.5 0.540774 -0.673332
257 1 0.510906 0.657713 0.5 0.797059 -0.393144
258 1 0.985687 0.760253 0.5 0.126313 0.392419
259 1 0.115768 0.449478 0.5 0.378998 0.106658
260 1 0.679521 0.824854 0.5 0.0211978 0.286828
261 1 0.0701723 0.0775431 0.5 -0.297205 -0.407614
262 1 0.542089 0.212072 0.5 0.312999 -0.340503
263 1 0.706737 0.344336 0.5 -0.122051 -0.766994
264 1 0.0905672 0.0432014 0.5 -0.206746 0.133086
265 1 0.50541 0.805571 0.5 0.1415 -0.440753
266 1 0.806359 0.37483 0.5 0.504092 0.00212535
267 1 0.974769 0.758761 0.5 0.340878 -0.255358
268 1 0.126235 0.480491 0.5 -0.000895612 -0.303144
269 1 0.413667 0.531611 0.5 -0.431257 -0.534732
270 1 0.0473697 0.904929 0.5 -0.100038 0.94965
271 1 0.0911116 0.524602 0.5 0.214987 -0.690262
272 1 0.684359 0.594176 0.5 -0.197053 0.495861
273 1 0.196296 0.441888 0.5 -0.569318 -0.588665
274 1 0.853942 0.450039 0.5 0.156903 0.395912
275 1 0.21759 0.833311 0.5 -0.535438 0.0975529
276 1 0.726287 0.357752 0.5 -0.674578 -0.428156
277 1 0.311152 0.164322 0.5 -0.0811088 0.600228
278 1 0.202595 0.772301 0.5 0.0632992 -0.281377
279 1 0.534081 0.0759067 0.5 -0.0151934 -0.639957
280 1 0.963964 0.356811 0.5 0.0320731 0.979522
281 1 0.675785 0.529538 0.5 -0.529901 0.426467
282 1 0.858349 0.840883 0.5 -0.449376 0.466574
283 1 0.340448 0.31962 0.5 0.791396 -0.249138
284 1 0.309642 0.63492 0.5 0.834622 -0.521784
285 1 0.446235 0.522952 0.5 0 0
286 1 0.683444 0.309232 0.5 -0.141308 0.360132
287 1 0.328995 0.374402 0.5 0.184797 -0.816991
288 1 0.496952 0.80067 0.5 -0.284481 -0.759823
289 1 0.380104 0.0265938 0.5 0.946039 0.0607963
290 1 0.746615 0.737891 0.5 -0.492022 0.422607
291 1 0.106215 0.935595 0.5 -0.270981 0.777972
292 1 0.747972 0.761377 0.5 -0.673826 0.54015
293 1 0.102036 0.601422 0.5 -0.71717 0.213825
294 1 0.401537 0.22825 0.5 0.238676 0.354967
295 1 0.799426 0.299746 0.5 -0.648322 -0.338103
296 1 0.834926 0.099637 0.5 0.496483 -0.0102919
297 1 0.121439 0.288002 0.5 -0.0748324 0.669528
298 1 0.416114 0.350116 0.5 -0.691417 0.0350783
299 1 0.898143 0.297788 0.5 0.0146037 0.837267
300 1 0.761391 0.565254 0.5 -0.691326 0.572493
301 1 0.263822 0.435667 0.5 -0.0806582 0.0660367
302 1 0.0638546 0.926812 0.5 0.406466 0.859545
303 1 0.798176 0.110427 0.5 0.72117 -0.177184
304 1 0.726764 0.232362 0.5 0.296127 -0.667142
305 1 0.530709 0.161991 0.5 -0.202203 -0.47472
306 1 0.517008 0.178732 0.5 0.0869065 -0.107798
307 1 0.282451 0.895671 0.5 -0.794721 0.218933
308 1 0.477245 0.724958 0.5 0.0535926 -0.557614
309 1 0.421367 0.53765 0.5 -0.70773 -0.640156
310 1 0.283916 0.175564 0.5 -0.462637 0.678482
311 1 0.789892 0.234638 0.5 0.582837 0.328877
312 1 0.14237 0.873706 0.5 -0.19875 0.677768
313 1 0.636844 0.710713 0.5 0.439818 0.487541
314 1 0.831381 0.628333 0.5 -0.734036 0.292946
315 1 0.514979 0.878767 0.5 -0.220888 -0.850598
316 1 0.246132 0.326876 0.5 0.576447 -0.0503899
317 1 0.969486 0.46708 0.5 0.080811 0.310925
318 1 0.529741 0.752068 0.5 -0.187452 -0.825003
319 1 0.834483 0.790894 0.5 0.114068 -0.0544425
320 1 0.00699363 0.761931 0.5 0.431192 0.0947955
321 1 0.284711 0.620095 0.5 -0.163871 -0.196142
322 1 0.92927 0.0165886 0.5 0.803785 -0.188705
323 1 0.215376 0.976282 0.5 -0.286633 0.749979
324 1 0.19951 0.00637066 0.5 0.320186 -0.628788
325 1 0.473015 0.94237 0.5 0.872618 -0.447476
326 1 0.0861864 0.536456 0.5 -0.0284227 0.117767
327 1 0.547017 0.0533326 0.5 -0.847078 -0.345472
328 1 0.733312 0.0892325 0.5 0.105373 -0.833364
329 1 0.0198596 0.0614005 0.5 -0.83676 -0.265354
330 1 0.134448 0.749673 0.5 0.333875 0.587989
331 1 0.394537 0.826468 0.5 0.203338 -0.101736
332 1 0.568179 0.755366 0.5 0.204771 -0.792039
333 1 0.893136 0.866601 0.5 -0.568156 0.30133
334 1 0.425978 0.336371 0.5 -0.537136 -0.318752
335 1 0.452317 0.584997 0.5 0.728074 -0.630516
336 1 0.137075 0.16686 0.5 0.177918 -0.728878
337 1 0.781213 0.408138 0.5 0.0851303 -0.170344
338 1 0.350201 0.31962 0.5 0.342225 0.118911
339 1 0.736198 0.231402 0.5 0.850873 -0.185757
340 1 0.829198 0.534616 0.5 -0.072119 0.552137
341 1 0.275149 0.848426 0.5 -0.0425606 -0.373547
342 1 0.88216 0.398853 0.5 0.537462 0.663285
343 1 0.720369 0.519185 0.5 -0.247778 0.596701
344 1 0.948147 0.577749 0.5 -0.614501 -0.217783
345 1 0.457834 0.454546 0.5 0.355512 0.127149
346 1 0.378522 0.871703 0.5 0.959265 -0.0407714
347 1 0.639277 0.215957 0.5 -0.466521 0.736608
348 1 0.237859 0.373058 0.5 -0.106743 -0.801997
349 1 0.0192478 0.409633 0.5 0.587943 0.0622521
350 1 0.0691179 0.208089 0.5 -0.0879261 -0.964206
351 1 0.98107 0.341064 0.5 0.179501 0.599878
352 1 0.656714 0.312879 0.5 -0.0983791 -0.573042
353 1 0.801133 0.400478 0.5 0.190044 0.345649
354 1 0.481047 0.871507 0.5 -0.849148 -0.0376872
355 1 0.631899 0.952833 0.5 0.0586944 0.232708
356 1 0.520806 0.127872 0.5 0.286836 -0.416945
357 1 0.712272 0.52482 0.5 -0.556767 0.418268
358 1 0.319903 0.459277 0.5 -0.819824 -0.156315
359 1 0.694723 0.391824 0.5 -0.654631 -0.333885
360 1 0.661861 0.851662 0.5 0.232077 -0.562157
361 1 0.20294 0.808581 0.5 -0.957222 0.238358
362 1 0.740517 0.82301 0.5 -0.0277964 -0.770259
363 1 0.584616 0.037032 0.5 0.0404147 -0.59075
364 1 0.256411 0.516389 0.5 -0.979366 -0.00206673
365 1 0.0905871 0.00866119 0.5 -0.757456 -0.253631
366 1 0.159034 0.13734 0.5 0.0293248 -0.339712
367 1 0.985568 0.510311 0.5 0.223949 -0.306035
368 1 0.472865 0.307635 0.5 -0.23688 0.310494
369 1 0.286276 0.104982 0.5 -0.143209 0.0388618
370 1 0.74451 0.166021 0.5 -0.459592 0.0745993
371 1 0.901785 0.0275307 0.5 0.87601 -0.156043
372 1 0.862456 0.367083 0.5 0.520213 0.796856
373 1 0.0150277 0.230675 0.5 -0.19961 -0.59752
374 1 0.908075 0.193318 0.5 0.770145 -0.444855
375 1 0.763775 0.439754 0.5 -0.378832 -0.208098
376 1 0.87185 0.215565 0.5 0.503937 0.351524
377 1 0.494326 0.235818 0.5 0.409858 -0.144876
378 1 0.997065 0.772728 0.5 -0.0641092 -0.0361634
379 1 0.89583 0.676866 0.5 0.234794 0.585345
380 1 0.883173 0.178497 0.5 0.70569 -0.287052
381 1 0.812829 0.584083 0.5 -0.0759277 0.844426
382 1 0.45563 0.602493 0.5 0.541032 -0.804671
383 1 0.226923 0.0138403 0.5 0.890181 -0.337293
384 1 0.829843 0.244456 0.5 -0.155495 -0.518591
385 1 0.831216 0.143422 0.5 0.501333 -0.11779
386 1 0.780955 0.489529 0.5 0.211 0.16511
387 1 0.504325 0.235623 0.5 0 0
388 1 0.600359 0.917183 0.5 -0.697828 -0.540977
389 1 0.530246 0.666019 0.5 0.365204 -0.362579
390 1 0.788847 0.0888744 0.5 0.478822 0.313962
391 1 0.0609922 0.806619 0.5 0.686802 0.666879
392 1 0.667309 0.833494 0.5 0.712707 -0.376545
393 1 0.456974 0.897501 0.5 0.735191 -0.627736
394 1 0.19857 0.257048 0.5 0.200017 -0.024368
395 1 0.83867 0.259384 0.5 -0.899403 -0.102594
396 1 0.519339 0.613638 0.5 -0.394715 -0.312923
397 1 0.348854 0.329588 0.5 0.383147 0.161475
398 1 0.755674 0.434744 0.5 -0.313764 -0.630708
399 1 0.413905 0.624707 0.5 0.678729 -0.017803
400 1 0.535184 0.810204 0.5 0.128045 -0.624879
401 1 0.153202 0.252544 0.5 0.794795 -0.0720278
402 1 0.932753 0.558575 0.5 -0.092458 -0.698078
403 1 0.582502 0.888019 0.5 0.327337 0.11272
404 1 0.412036 0.175807 0.5 0.0545028 0.80035
405 1 0.695898 0.244845 0.5 -0.190339 -0.0577592
406 1 0.0593188 0.532669 0.5 -0.769846 -0.518307
407 1 0.299157 0.863614 0.5 -0.251546 0.067673
408 1 0.274502 0.392493 0.5 0.480709 -0.755255
409 1 0.159845 0.163768 0.5 0.0409377 -0.540575
410 1 0.0401722 0.348399 0.5 -0.0246501 0.810251
411 1 0.974637 0.359632 0.5 -0.0974247 0.906782
412 1 0.686148 0.0568747 0.5 0.262323 -0.822253
413 1 0.693655 0.989562 0.5 -0.0816549 -0.76623
414 1 0.0319651 0.486555 0.5 -0.440552 -0.323276
415 1 0.592008 0.279666 0.5 0.181587 0.618869
416 1 0.314813 0.292833 0.5 0.910976 -0.302602
417 1 0.267688 0.135208 0.5 0.0894958 0.415889
418 1 0.412432 0.500031 0.5 -0.651692 0.0496965
419 1 0.159222 0.34343 0.5 0.427472 -0.756679
420 1 0.579618 0.621366 0.5 -0.237468 0.180457
421 1 0.610509 0.486403 0.5 -0.666783 0.621154
422 1 0.42615 0.253944 0.5 0.0532685 0.148114
423 1 0.700516 0.804773 0.5 0.320634 -0.12664
424 1 0.948261 0.401268 0.5 -0.0291428 0.438265
425 1 0.190733 0.586547 0.5 0.262937 0.0354203
426 1 0.908823 0.395526 0.5 0.431303 0.40173
427 1 0.181083 0.2785 0.5 0.878462 -0.0982058
428 1 0.926204 0.473798 0.5 0.209394 0.91839
429 1 0.977345 0.603855 0.5 -0.476079 0.528064
430 1 0.0452508 0.958782 0.5 0.0336007 0.871238
431 1 0.868844 0.846248 0.5 -0.347481 0.473595
432 1 0.0014067 0.134627 0.5 0.320505 0.566276
433 1 0.344971 0.212877 0.5 -0.643368 -0.272653
434 1 0.00854866 0.445245 0.5 0.202538 0.397365
435 1 0.659867 0.0234457 0.5 0.800229 -0.444348
436 1 0.656351 0.533938 0.5 -0.392482 0.607802
437 1 0.983129 0.265618 0.5 -0.193909 -0.0443423
438 1 0.55033 0.185006 0.5 0.679858 0.650292
439 1 0.306468 0.208752 0.5 -0.0985447 -0.794702
440 1 0.170932 0.100977 0.5 -0.0798911 -0.840483
441 1 0.0436704 0.783679 0.5 0.465401 0.645474
442 1 0.514716 0.275125 0.5 -0.209616 0.925453
443 1 0.355964 0.836669 0.5 0.904552 0.183082
444 1 0.404196 0.818669 0.5 0.108321 -0.439892
445 1 0.0285524 0.181653 0.5 -0.0338477 -0.779655
446 1 0.581991 0.118132 0.5 0.0528813 -0.75549
447 1 0.546133 0.0750766 0.5 -0.136319 -0.813565
448 1 0.312567 0.497804 0.5 -0.908692 -0.258361
449 1 0.674779 0.774797 0.5 -0.585923 0.394009
450 1 0.491205 0.91797 0.5 0.0250567 -0.249446
451 1 0.213613 0.211437 0.5 0.646158 0.32658
452 1 0.408438 0.335038 0.5 -0.867756 0.0695834
453 1 0.31938 0.513248 0.5 -0.853383 -0.368635
454 1 0.646349 0.539636 0.5 -0.51377 0.0658216
455 1 0.531914 0.0851823 0.5 -0.0106558 -0.720401
456 1 0.250973 0.634342 0.5 0.391708 -0.765311
457 1 0.658781 0.101122 0.5 -0.0921923 0.299619
458 1 0.791012 0.668867 0.5 -0.584745 0.782798
459 1 0.316562 0.963383 0.5 0.806602 -0.523576
460 1 0.694767 0.380003 0.5 -0.696911 -0.433949
461 1 0.0768828 0.911063 0.5 0.0864556 0.79094
462 1 0.0719564 0.713436 0.5 0.940374 -0.0580359
463 1 0.978098 0.380775 0.5 0.438889 0.656461
464 1 0.261138 0.297481 0.5 0.67583 -0.693086
465 1 0.479047 0.589765 0.5 0.144629 -0.752899
466 1 0.775898 0.0995925 0.5 0.196064 -0.00508339
467 1 0.833854 0.300927 0.5 0.485773 -0.528975
468 1 0.0373048 0.124854 0.5 -0.324429 -0.494325
469 1 0.373497 0.173547 0.5 0.366408 0.711383
470 1 0.232815 0.271335 0.5 0.228449 0.521742
471 1 0.191906 0.485976 0.5 0.311819 -0.472835
472 1 0.965212 0.330137 0.5 0.326363 0.873829
473 1 0.181191 0.837051 0.5 -0.683933 0.434457
474 1 0.78324 0.022087 0.5 0.962955 -0.221143
475 1 0.288311 0.939732 0.5 0.630093 -0.553278
476 1 0.291714 0.193594 0.5 -0.31578 -0.620795
477 1 0.648176 0.209798 0.5 -0.394633 0.810422
478 1 0.137784 0.456553 0.5 -0.739107 -0.322876
479 1 0.869533 0.413963 0.5 -0.0956632 0.975154
480 1 0.364521 0.116596 0.5 0.351176 0.844347
481 1 0.811149 0.609901 0.5 -0.202318 0.927567
482 1 0.442503 0.237126 0.5 -0.3044 0.03518
483 1 0.0346181 0.811413 0.5 0.443553 0.737336
484 1 0.737802 0.392209 0.5 -0.47288 -0.618522
485 1 0.643476 0.690947 0.5 -0.8029 0.30357
486 1 0.497139 0.313269 0.5 -0.0117117 0.149101
487 1 0.509924 0.243595 0.5 0.907971 -0.137549
488 1 0.448043 0.726879 0.5 0.0143962 -0.267478
489 1 0.983126 0.981873 0.5 -0.016615 -0.718345
490 1 0.0843669 0.438226 0.5 0.466016 -0.0160881
491 1 0.162967 0.405317 0.5 -0.778474 -0.5269
492 1 0.259961 0.10634 0.5 -0.687565 0.0301742
493 1 0.824987 0.550246 0.5 -0.325661 0.847193
494 1 0.0201582 0.314807 0.5 0.316465 -0.012727
495 1 0.353557 0.628651 0.5 -0.60056 -0.436051
496 1 0.63945 0.647813 0.5 -0.128858 0.596268
497 1 0.181614 0.298478 0.5 0.375979 -0.901836
498 1 0.408206 0.0830785 0.5 0.85831 0.109914
499 1 0.109677 0.523761 0.5 0.0747951 0.70163
500 1 0.1025 0.451847 0.5 0.202772 -0.488326
501 1 0.0916326 0.813209 0.5 0.391909 0.291978
502 1 0.656335 0.251066 0.5 -0.232134 -0.316307
503 1 0.691754 0.517574 0.5 -0.342503 0.900209
504 1 0.256501 0.717557 0.5 0.783327 -0.173402
505 1 0.439429 0.975852 0.5 0.300582 0.139382
506 1 0.347578 0.189429 0.5 0.761612 0.386043
507 1 0.32021 0.595931 0.5 -0.905816 0.178494
508 1 0.281276 0.933033 0.5 0.368028 -0.520528
509 1 0.597191 0.681912 0.5 0.798985 0.308951
510 1 0.791347 0.167036 0.5 -0.70989 -0.305218
511 1 0.742301 0.239514 0.5 0.549912 -0.516309
512 1 0.690934 0.411702 0.5 0.0299487 -0.925876
513 1 0.876251 0.248047 0.5 0.396536 0.558118
514 1 0.438386 0.549821 0.5 -0.435487 0.206901
515 1 0.890576 0.561425 0.5 -0.552673 0.312836
516 1 0.892355 0.493532 0.5 -0.270752 0.93157
517 1 0.926797 0.644643 0.5 -0.617197 0.675086
518 1 0.34246 0.585896 0.5 0.221116 -0.255217
519 1 0.0224971 0.239661 0.5 0.154048 -0.769079
520 1 0.291662 0.612719 0.5 -0.640447 0.540438
521 1 0.621922 0.940018 0.5 -0.674329 0.297903
522 1 0.321777 0.0714507 0.5 0.762512 -0.0204707
523 1 0.268347 0.83015 0.5 -0.485014 -0.11925
524 1 0.348317 0.0446525 0.5 0.728993 0.458224
525 1 0.748442 0.830319 0.5 0.192249 -0.834627
526 1 0.210399 0.851971 0.5 -0.876448 0.107942
527 1 0.322344 0.776163 0.5 -0.112837 -0.866574
528 1 0.0481283 0.39063 0.5 0.194414 -0.152203
529 1 0.0283389 0.972971 0.5 -0.267283 0.820949
530 1 0.47347 0.178841 0.5 0.824879 0.210754
531 1 0.0276105 0.293676 0.5 0.214627 -0.737802
532 1 0.933114 0.604091 0.5 -0.896371 -0.332826
533 1 0.368383 0.488748 0.5 -0.130902 -0.508738
534 1 0.847367 0.576325 0.5 0.334075 0.48821
535 1 0.295786 0.33305 0.5 0.379476 -0.682913
536 1 0.445568 0.38151 0.5 -0.139311 -0.0267218
537 1 0.689067 0.689745 0.5 -0.684253 0.525914
538 1 0.714009 0.371007 0.5 -0.212174 -0.949434
539 1 0.257328 0.260475 0.5 -0.00192955 0.535393
540 1 0.658452 0.929729 0.5 -0.140612 0.673762
541 1 0.782 0.934396 0.5 0.755928 0.155902
542 1 0.452388 0.869105 0.5 0.0982076 -0.387934
543 1 0.242357 0.0215812 0.5 0.635703 -0.460328
544 1 0.372685 0.863588 0.5 0.92863 -0.204999
545 1 0.76178 0.668122 0.5 -0.52673 0.556738
546 1 0.327292 0.576744 0.5 0.63141 0.643705
547 1 0.673651 0.280338 0.5 -0.639254 0.356654
548 1 0.570696 0.493065 0.5 -0.660363 -0.566013
549 1 0.884864 0.322142 0.5 0.590472 0.753467
550 1 0.351673 0.277959 0.5 0.157767 -0.444091
551 1 0.706718 0.964171 0.5 0.693282 0.0681731
552 1 0.101259 0.292494 0.5 0.418502 -0.129007
553 1 0.30866 0.897494 0.5 -0.0741848 0.559233
554 1 0.0518868 0.516778 0.5 -0.428634 0.366879
555 1 0.992074 0.274314 0.5 0.00585899 -0.755685
556 1 0.00192121 0.360409 0.5 -0.255311 0.597215
557 1 0.330574 0.105395 0.5 0.658969 -0.0868949
558 1 0.786232 0.629632 0.5 -0.726921 0.205961
559 1 0.791767 0.136972 0.5 -0.183485 0.404405
560 1 0.874718 0.28246 0.5 -0.274487 0.484842
561 1 0.601662 0.822444 0.5 0.123231 -0.678314
562 1 0.347351 0.786737 0.5 -0.0874712 -0.803444
563 1 0.706544 0.325353 0.5 0.329075 0.301229
564 1 0.699986 0.756231 0.5 -0.676719 0.447956
565 1 0.11783 0.163343 0.5 0.10146 -0.87458
566 1 0.0774948 0.703797 0.5 0.766125 -0.483571
567 1 0.766923 0.617615 0.5 -0.901453 -0.278526
568 1 0.149921 0.55616 0.5 -0.264728 -0.321458
569 1 0.756591 0.744068 0.5 -0.708007 -0.0195589
570 1 0.687491 0.730979 0.5 -0.49964 0.596584
571 1 0.703016 0.718155 0.5 0.62514 0.492855
572 1 0.275578 0.763267 0.5 -0.452652 -0.257953
573 1 0.956918 0.668866 0.5 -0.101 0.264391
574 1 0.208872 0.779797 0.5 -0.0967951 -0.420929
575 1 0.138095 0.603065 0.5 -0.778719 -0.11694
576 1 0.413158 0.775165 0.5 0.306151 0.289632
577 1 0.864991 0.613445 0.5 -0.374001 0.574542
578 1 0.655705 0.203981 0.5 -0.263263 0.840123
579 1 0.746344 0.577236 0.5 -0.864681 0.415603
580 1 0.121493 0.700467 0.5 0.891248 0.239744
581 1 0.47929 0.428588 0.5 -0.166262 0.318942
582 1 0.336692 0.292767 0.5 0.554297 0.0348053
583 1 0.937843 0.585169 0.5 -0.438208 -0.102967
584 1 0.47802 0.382452 0.5 0.164027 -0.512783
585 1 0.29808 0.838757 0.5 0.0649361 -0.112968
586 1 0.457757 0.732944 0.5 -0.132996 -0.38814
587 1 0.810116 0.563987 0.5 -0.243259 0.597562
588 1 0.571452 0.483085 0.5 -0.307717 -0.479673
589 1 0.585981 0.546469 0.5 -0.846241 0.177386
590 1 0.628177 0.769555 0.5 -0.654003 -0.0049054
591 1 0.326093 0.743315 0.5 -0.0441043 -0.524537
592 1 0.907792 0.412761 0.5 0.672886 0.654953
593 1 0.407604 0.439386 0.5 0.131478 -0.815784
594 1 0.629723 0.506113 0.5 -0.912337 -0.0509778
595 1 0.270979 0.0306762 0.5 0.147247 -0.193017
596 1 0.992167 0.704104 0.5 -0.445523 -0.445914
597 1 0.613819 0.118708 0.5 0.12863 -0.545032
598 1 0.735596 0.0147328 0.5 0.637659 0.0460547
599 1 0.250132 0.980212 0.5 0.520672 -0.366976
600 1 0.885211 0.892416 0.5 -0.819267 0.546048
601 1 0.827036 0.8594 0.5 0.544353 -0.105837
602 1 0.397333 0.286778 0.5 -0.0229553 -0.041308
603 1 0.728977 0.170449 0.5 -0.090263 0.0165554
604 1 0.0691132 0.246756 0.5 -0.253534 -0.947874
605 1 0.0358552 0.901512 0.5 0.291154 0.748913
606 1 0.151854 0.983862 0.5 -0.0534745 -0.650506
607 1 0.597843 0.787077 0.5 0.390088 -0.757305
608 1 0.23397 0.10213 0.5 -0.482075 0.13338
609 1 0.865436 0.998297 0.5 -0.118139 -0.820776
610 1 0.00250867 0.650722 0.5 -0.245188 -0.588194
611 1 0.972302 0.140479 0.5 0.248443 -0.312886
612 1 0.684803 0.0871247 0.5 0.0620267 -0.240132
613 1 0.795609 0.994094 0.5 0.609403 -0.0695067
614 1 0.147073 0.24433 0.5 0.459768 0.275448
615 1 0.0774154 0.253771 0.5 -0.148874 -0.942016
616 1 0.606318 0.195456 0.5 -0.28192 0.222048
617 1 0.921472 0.8909 0.5 -0.547784 0.125955
618 1 0.580896 0.313463 0.5 -0.517504 0.746491
619 1 0.0603751 0.916853 0.5 0.557083 0.786969
620 1 0.85285 0.731312 0.5 -0.168944 0.306869
621 1 0.322083 0.437875 0.5 -0.733006 0.26284
622 1 0.98449 0.32449 0.5 -0.0558279 0.903961
623 1 0.129072 0.123658 0.5 0.389196 -0.72626
624 1 0.154896 0.848614 0.5 0.55466 0.190987
625 1 0.265784 0.766663 0.5 -0.192092 -0.468793
626 1 0.133663 0.177052 0.5 0.416514 -0.384327
627 1 0.715015 0.595762 0.5 -0.342196 0.758118
628 1 0.984217 0.644757 0.5 -0.523475 -0.719808
629 1 0.826607 0.560598 0.5 -0.211999 0.929762
630 1 0.0182 0.509009 0.5 -0.497581 -0.245416
631 1 0.312315 0.247181 0.5 -0.847257 -0.191634
632 1 0.696498 0.439401 0.5 -0.504254 -0.610478
633 1 0.00311604 0.640349 0.5 -0.459368 -0.425811
634 1 0.0069576 0.369484 0.5 -0.410181 0.0282272