ITEM: TIMESTEP
0
ITEM: NUMBER OF ATOMS
9945
ITEM: BOX BOUNDS pp pp pp
-5.8359999999999999e+01 5.8359999999999999e+01
-5.8359999999999999e+01 5.8359999999999999e+01
-5.0000000000000000e-01 5.0000000000000000e-01
ITEM: ATOMS id type xs ys zs c_002[1] c_002[2]
1 1 0.425255 0.909788 0.5 -0.638561 0.0434443
2 1 0.0717775 0.00836757 0.5 -0.203794 -0.140104
3 1 0.658118 0.161621 0.5 0.50441 -0.0911775
4 1 0.267838 0.114919 0.5 -0.515688 -0.0600639
5 1 0.385759 0.814877 0.5 -0.785318 -0.27377
6 1 0.521945 0.83386 0.5 -0.335265 -0.282329
7 1 0.163789 0.537257 0.5 -0.0126999 -0.878662
8 1 0.958492 0.955545 0.5 0.336764 -0.539921
9 1 0.476214 0.658419 0.5 -0.75993 0.00705622
10 1 0.0973258 0.861673 0.5 -0.259141 -0.630726
11 1 0.0341015 0.37313 0.5 -0.229965 -0.824401
12 1 0.351804 0.696401 0.5 0.0673886 0.24123
13 1 0.229393 0.841468 0.5 -0.288228 0.271614
14 1 0.749053 0.438694 0.5 0.258798 0.00133742
15 1 0.319782 0.845066 0.5 -0.625267 0.249837
16 1 0.0308327 0.221794 0.5 -0.419673 0.489444
17 1 0.770604 0.699227 0.5 0.565484 -0.709576
18 1 0.363212 0.582675 0.5 0.489226 0.50876
19 1 0.677274 0.0583657 0.5 0.369937 0.214113
20 1 0.697035 0.774866 0.5 0.0411268 -0.414294
21 1 0.827394 0.483274 0.5 0.316238 0.251048
22 1 0.071082 0.510934 0.5 0.724831 -0.337085
23 1 0.198925 0.0299169 0.5 -0.693149 -0.00940687
24 1 0.399917 0.985592 0.5 -0.335757 0.137483
25 1 0.740099 0.559169 0.5 -0.284782 0.811246
26 1 0.630555 0.946777 0.5 -0.913254 -0.140874
27 1 0.040982 0.52716 0.5 0.382046 0.259999
28 1 0.796033 0.918974 0.5 0.0582692 -0.418206
29 1 0.667544 0.843512 0.5 -0.614584 -0.0203901
30 1 0.417208 0.495481 0.5 -0.875633 -0.164102
31 1 0.643302 0.858032 0.5 -0.772026 0.0478648
32 1 0.513132 0.599699 0.5 -0.839536 -0.14124
33 1 0.830374 0.574051 0.5 -0.808813 0.0483877
34 1 0.746886 0.385504 0.5 0.170992 0.75397
35 1 0.0877067 0.70562 0.5 0.122154 0.690249
36 1 0.00104646 0.909112 0.5 0.314408 -0.695935
37 1 0.806709 0.826938 0.5 0.0904561 -0.970077
38 1 0.0628599 0.943344 0.5 0.664906 0.630047
39 1 0.0641957 0.992114 0.5 0 0
40 1 0.368795 0.645128 0.5 -0.408092 0.471653
41 1 0.493698 0.408215 0.5 -0.525179 -0.585243
42 1 0.828011 0.733535 0.5 -0.395019 0.0663952
43 1 0.910775 0.184752 0.5 -0.238217 0.564986
44 1 0.426449 0.643876 0.5 -0.731244 -0.239348
45 1 0.990522 0.741016 0.5 0.61705 -0.562985
46 1 0.619398 0.737939 0.5 -0.254541 0.732068
47 1 0.662616 0.315243 0.5 -0.532101 0.807353
48 1 0.762761 0.690501 0.5 0.275066 -0.433912
49 1 0.432795 0.32357 0.5 0.0815749 -0.133716
50 1 0.931777 0.144917 0.5 -0.8944 0.126348
51 1 0.637916 0.162109 0.5 0.364131 0.102263
52 1 0.332189 0.998886 0.5 -0.00601309 -0.480623
53 1 0.663597 0.510517 0.5 -0.632495 0.00989891
54 1 0.570838 0.128382 0.5 0.290534 -0.57536
55 1 0.0494533 0.666065 0.5 -0.515877 0.453734
56 1 0.817673 0.377736 0.5 0.110342 0.734738
57 1 0.451165 0.858173 0.5 -0.558135 0.630627
58 1 0.966894 0.233822 0.5 -0.485388 0.377111
59 1 0.466899 0.140735 0.5 0.52575 -0.666972
60 1 0.680847 0.279863 0.5 0.0167695 0.871646
61 1 0.777171 0.887948 0.5 0.674198 -0.629928
62 1 0.840326 0.961764 0.5 0.622067 -0.238911
63 1 0.157106 0.584016 0.5 0.458964 -0.45294
64 1 0.835387 0.0864386 0.5 0.2568 0.526202
65 1 0.1914 0.835071 0.5 -0.200095 -0.109713
66 1 0.637497 0.559856 0.5 -0.555502 -0.286539
67 1 0.639312 0.803214 0.5 -0.52943 0.543028
68 1 0.931006 0.0104386 0.5 0.590558 -0.495146
69 1 0.82219 0.668372 0.5 -0.810216 0.492312
70 1 0.311174 0.173637 0.5 0.52261 0.723021
71 1 0.485695 0.684431 0.5 -0.627073 -0.154376
72 1 0.0500982 0.802377 0.5 0 0
73 1 0.905264 0.273467 0.5 -0.0594092 -0.699969
74 1 0.577232 0.34232 0.5 0.0554862 -0.889833
75 1 0.612216 0.243612 0.5 0.555943 -0.594283
76 1 0.648606 0.0493144 0.5 -0.669485 -0.0228422
77 1 0.0961888 0.776493 0.5 -0.230728 -0.543248
78 1 0.177331 0.664469 0.5 -0.016247 0.226305
79 1 0.330363 0.416907 0.5 0.669879 0.271305
80 1 0.823184 0.678988 0.5 -0.764394 0.0190388
81 1 0.89216 0.00642957 0.5 0.143482 0.580987
82 1 0.0581157 0.866515 0.5 0.162444 -0.701152
83 1 0.514672 0.848476 0.5 -0.810831 0.102382
84 1 0.329544 0.352558 0.5 0.452888 0.585121
85 1 0.740271 0.988068 0.5 0.126656 -0.541869
86 1 0.245179 0.816949 0.5 -0.587799 -0.256722
87 1 0.251351 0.754474 0.5 -0.202155 -0.496422
88 1 0.484035 0.132765 0.5 0.483125 -0.296018
89 1 0.789623 0.859501 0.5 0.340831 -0.798152
90 1 0.941651 0.0986707 0.5 -0.370838 0.376879
91 1 0.108797 0.225965 0.5 -0.723514 0.369468
92 1 0.333495 0.640689 0.5 0.381728 0.388134
93 1 0.664227 0.559733 0.5 -0.738014 -0.608589
94 1 0.0291033 0.925159 0.5 0.363006 -0.230166
95 1 0.635213 0.443104 0.5 -0.105012 0.428242
96 1 0.273492 0.0807935 0.5 -0.494927 -0.46013
97 1 0.210335 0.908653 0.5 -0.921861 -0.172161
98 1 0.235896 0.21156 0.5 0.605198 0.198903
99 1 0.398262 0.485993 0.5 -0.812472 0.10228
100 1 0.938269 0.899311 0.5 0.5543 -0.0759133
101 1 0.580652 0.388229 0.5 0.540488 -0.21609
102 1 0.169731 0.954457 0.5 -0.391813 -0.851891
103 1 0.431974 0.769752 0.5 -0.799662 -0.23441
104 1 0.143925 0.925442 0.5 -0.642745 -0.646774
105 1 0.929137 0.524754 0.5 -0.159742 0.630168
106 1 0.161377 0.947773 0.5 -0.704862 -0.544216
107 1 0.228774 0.596074 0.5 0.324431 -0.505767
108 1 0.191538 0.906446 0.5 -0.22816 -0.622095
109 1 0.281832 0.535445 0.5 -0.0743423 0.934623
110 1 0.234943 0.18198 0.5 0.612573 0.390893
111 1 0.147502 0.287836 0.5 -0.721867 -0.41194
112 1 0.784477 0.895777 0.5 -0.0286124 -0.868473
113 1 0.627697 0.319965 0.5 -0.291126 0.657768
114 1 0.697944 0.606971 0.5 -0.893084 -0.30936
115 1 0.254357 0.629612 0.5 -0.143873 0.15752
116 1 0.701717 0.744876 0.5 0.0246928 -0.51037
117 1 0.0973777 0.738714 0.5 0.181208 -0.860309
118 1 0.300489 0.932366 0.5 -0.878171 -0.204327
119 1 0.164291 0.240998 0.5 -0.437428 0.786023
120 1 0.256022 0.0716474 0.5 -0.599606 -0.0840022
121 1 0.647548 0.1608 0.5 0.874708 0.0487813
122 1 0.0670903 0.686023 0.5 -0.243733 -0.567632
123 1 0.816784 0.48134 0.5 0.223122 0.212249
124 1 0.930384 0.691405 0.5 0.00500572 -0.826264
125 1 0.766655 0.0271509 0.5 -0.816976 -0.390717
126 1 0.339547 0.791074 0.5 -0.717306 -0.355776
127 1 0.642455 0.74349 0.5 -0.266271 0.705214
128 1 0.151423 0.374915 0.5 -0.283053 0.185872
129 1 0.774513 0.467168 0.5 0.224702 0.502381
130 1 0.653489 0.322823 0.5 -0.343067 0.607438
131 1 0.511133 0.132931 0.5 -0.450083 -0.786251
132 1 0.661729 0.115717 0.5 0.637574 0.156977
133 1 0.800573 0.14717 0.5 -0.103487 0.562607
134 1 0.0418484 0.924986 0.5 0.413965 0.131177
135 1 0.181523 0.852384 0.5 -0.221025 0.379312
136 1 0.842368 0.598202 0.5 -0.768097 0.556519
137 1 0.42453 0.815332 0.5 0.0750529 -0.318728
138 1 0.44151 0.734491 0.5 -0.37177 0.134248
139 1 0.201171 0.694894 0.5 -0.433488 0.204183
140 1 0.0456946 0.0215983 0.5 0.0727393 0.0303374
141 1 0.575328 0.914672 0.5 -0.864297 0.374816
142 1 0.777388 0.832577 0.5 0.538638 -0.592417
143 1 0.886784 0.931059 0.5 0.884318 -0.0972831
144 1 0.108568 0.317815 0.5 0.518252 -0.762589
145 1 0.171945 0.140525 0.5 -0.665445 0.293595
146 1 0.606959 0.543972 0.5 -0.532224 0.111698
147 1 0.836041 0.284422 0.5 0.455931 0.787991
148 1 0.123204 0.944325 0.5 -0.854136 -0.281252
149 1 0.420121 0.056684 0.5 0.0649561 -0.420869
150 1 0.951497 0.501014 0.5 -0.312785 0.920798
151 1 0.765921 0.381571 0.5 -0.0391088 0.896809
152 1 0.183448 0.439797 0.5 0.267839 -0.409032
153 1 0.0591212 0.933093 0.5 0.842894 0.4081
154 1 0.830427 0.562536 0.5 -0.978765 -0.0713894
155 1 0.117435 0.517468 0.5 0.864255 -0.46851
156 1 0.205083 0.523305 0.5 0.0369164 -0.279319
157 1 0.820741 0.656429 0.5 -0.514582 0.359728
158 1 0.440382 0.942575 0.5 -0.56487 0.136159
159 1 0.162628 0.874265 0.5 0.141921 0.523523
160 1 0.155841 0.292964 0.5 -0.950349 -0.0549268
161 1 0.953733 0.596287 0.5 0.837865 0.400037
162 1 0.511997 0.178566 0.5 0.649118 -0.00710518
163 1 0.31045 0.0517556 0.5 -0.541663 -0.396201
164 1 0.701933 0.902969 0.5 0.0276714 0.281003
165 1 0.958778 0.622447 0.5 0.312044 -0.464718
166 1 0.728251 0.144339 0.5 0.506337 -0.297994
167 1 0.559286 0.432978 0.5 0.718811 0.410101
168 1 0.0687238 0.96221 0.5 -0.154509 0.0598886
169 1 0.917485 0.363849 0.5 0.739276 0.584672
170 1 0.416507 0.13992 0.5 0.731864 -0.60976
171 1 0.0676595 0.663176 0.5 -0.663192 0.140614
172 1 0.305128 0.758553 0.5 -0.65245 -0.498924
173 1 0.561417 0.581533 0.5 -0.240433 -0.398451
174 1 0.0712993 0.29236 0.5 -0.408084 -0.606393
175 1 0.711882 0.288503 0.5 0.0340771 0.529431
176 1 0.613757 0.705437 0.5 -0.271082 0.7248
177 1 0.618191 0.728495 0.5 -0.545518 0.640519
178 1 0.120962 0.79733 0.5 -0.161743 -0.923641
179 1 0.701979 0.284683 0.5 -0.440301 0.710632
180 1 0.379186 0.476991 0.5 -0.481754 -0.597155
181 1 0.509998 0.345533 0.5 -0.282745 -0.826134
182 1 0.569972 0.000768583 0.5 -0.774291 0.329181
183 1 0.496446 0.838697 0.5 -0.788333 -0.0832071
184 1 0.300854 0.679762 0.5 -0.261911 -0.176374
185 1 0.240073 0.0288674 0.5 -0.895636 -0.0442707
186 1 0.300057 0.377048 0.5 0.846007 0.277769
187 1 0.679805 0.49282 0.5 0.295883 0.802683
188 1 0.474566 0.0757197 0.5 0.715856 -0.555173
189 1 0.339039 0.0874011 0.5 -0.194406 -0.0952048
190 1 0.833478 0.363601 0.5 -0.468654 0.616119
191 1 0.233098 0.126482 0.5 -0.154367 0.0665243
192 1 0.584404 0.444043 0.5 0.76402 0.195064
193 1 0.0946755 0.241485 0.5 -0.0820796 -0.131999
194 1 0.460449 0.933541 0.5 -0.713307 -0.223569
195 1 0.766681 0.803665 0.5 0.524748 -0.331884
196 1 0.248919 0.999696 0.5 -0.696893 -0.334341
197 1 0.363109 0.463065 0.5 -0.364965 -0.321726
198 1 0.573016 0.727625 0.5 -0.757323 0.518968
199 1 0.410647 0.356718 0.5 0.299341 0.715027
200 1 0.841578 0.50823 0.5 -0.852386 0.0351095
201 1 0.111596 0.752407 0.5 0.354297 -0.778045
202 1 0.921229 0.759872 0.5 0.292926 -0.702507
203 1 0.392831 0.636714 0.5 0.526508 -0.552672
204 1 0.89544 0.379834 0.5 0.768842 -0.0124228
205 1 0.417033 0.349419 0.5 -0.143785 0.838331
206 1 0.166283 0.477674 0.5 0.741341 0.432557
207 1 0.729869 0.518028 0.5 -0.30143 0.90787
208 1 0.725393 0.32959 0.5 0.230635 0.6966
209 1 0.340328 0.771707 0.5 -0.75607 -0.347922
210 1 0.755103 0.11735 0.5 0.950358 -0.222745
211 1 0.597334 0.237796 0.5 0.579966 -0.0397601
212 1 0.385174 0.427398 0.5 -0.316388 0.760195
213 1 0.642516 0.589619 0.5 -0.414879 -0.239229
214 1 0.739192 0.0246499 0.5 -0.213929 -0.724633
215 1 0.668209 0.746708 0.5 0.215558 0.106327
216 1 0.533566 0.733231 0.5 -0.72726 0.496253
217 1 0.82832 0.264118 0.5 0.39141 0.0403732
218 1 0.910301 0.301087 0.5 -0.095797 -0.960959
219 1 0.087397 0.0220484 0.5 -0.208357 -0.258029
220 1 0.146145 0.026719 0.5 -0.722677 -0.652538
221 1 0.668436 0.190211 0.5 -0.680673 0.189858
222 1 0.385062 0.531719 0.5 -0.535229 0.682625
223 1 0.100511 0.368234 0.5 -0.00849999 -0.370226
224 1 0.367192 0.364243 0.5 -0.276647 0.0888955
225 1 0.134363 0.0894836 0.5 -0.156679 0.0267413
226 1 0.416664 0.0941659 0.5 0.696176 -0.675235
227 1 0.992469 0.538934 0.5 0.933313 0.157655
228 1 0.267033 0.00243185 0.5 -0.423519 -0.413886
229 1 0.41428 0.781818 0.5 -0.266431 -0.326924
230 1 0.83897 0.336707 0.5 0.182392 0.710664
231 1 0.0734145 0.360356 0.5 0.522717 -0.522506
232 1 0.986017 0.41327 0.5 -0.509159 -0.0571901
233 1 0.0868724 0.19972 0.5 -0.0646472 0.482217
234 1 0.141015 0.836978 0.5 -0.737367 -0.543117
235 1 0.903097 0.878357 0.5 0.479719 0.0175624
236 1 0.693459 0.083158 0.5 -0.55237 0.480729
237 1 0.792291 0.00949885 0.5 -0.852013 -0.188225
238 1 0.141346 0.857528 0.5 -0.840576 -0.149696
239 1 0.248714 0.957408 0.5 0.0877495 0.704549
240 1 0.530472 0.757047 0.5 -0.301696 0.13258
241 1 0.771101 0.822702 0.5 0.377386 -0.196862
242 1 0.261325 0.970546 0.5 -0.212729 0.126427
243 1 0.793301 0.975 0.5 0.667796 -0.580629
244 1 0.472778 0.901185 0.5 -0.913398 0.32696
245 1 0.541908 0.684848 0.5 -0.555954 -0.107613
246 1 0.665732 0.0528889 0.5 -0.475755 -0.540484
247 1 0.606345 0.519673 0.5 0.277518 0.37817
248 1 0.367344 0.17635 0.5 -0.320972 -0.85244
249 1 0.461323 0.243964 0.5 0.942523 -0.165277
250 1 0.606925 0.235566 0.5 0.841274 -0.30289
251 1 0.142395 0.826341 0.5 -0.367491 -0.774482
252 1 0.5513 0.120104 0.5 0.442439 -0.533832
253 1 0.864344 0.136077 0.5 0.729835 0.530203
254 1 0.946504 0.823572 0.5 -0.250124 -0.245882
255 1 0.607344 0.858803 0.5 -0.779132 0.501756
256 1 0.905972 0.497208 0.5 -0.478995 0.00861148
257 1 0.308742 0.192611 0.5 0.599723 0.65407
258 1 0.377249 0.391427 0.5 0.262382 -0.766344
259 1 0.549404 0.280966 0.5 0.613415 -0.698358
260 1 0.844418 0.870976 0.5 -0.601325 -0.187431
261 1 0.492359 0.0916007 0.5 -0.0657722 -0.827731
262 1 0.775776 0.78325 0.5 0.859077 -0.0708581
263 1 0.0520789 0.630934 0.5 0.293303 -0.42153
264 1 0.770016 0.0880747 0.5 0.87674 -0.187251
265 1 0.49024 0.14554 0.5 -0.424351 0.332182
266 1 0.812371 0.0551098 0.5 0.140927 0.637707
267 1 0.877162 0.0884111 0.5 0.0613733 0.418398
268 1 0.596286 0.466558 0.5 -0.112541 0.296239
269 1 0.442056 0.263479 0.5 0.652729 0.142806
270 1 0.489751 0.811697 0.5 -0.253863 -0.0550518
271 1 0.60092 0.436871 0.5 0.287186 0.65635
272 1 0.295432 0.902349 0.5 0.489942 0.261089
273 1 0.258929 0.24438 0.5 0.645612 -0.204245
274 1 0.748705 0.423901 0.5 -0.303146 -0.121494
275 1 0.74449 0.189923 0.5 0.450916 0.452824
276 1 0.610571 0.262936 0.5 0.0568165 -0.212403
277 1 0.612487 0.831504 0.5 -0.512598 0.626922
278 1 0.711529 0.934433 0.5 0.704332 -0.287889
279 1 0.0787308 0.0971378 0.5 -0.314382 -0.0656126
280 1 0.889964 0.202259 0.5 0.467777 0.156599
281 1 0.803818 0.836603 0.5 0.235178 -0.93547
282 1 0.511773 0.964896 0.5 0.385557 0.460751
283 1 0.915761 0.501576 0.5 -0.309277 0.172862
284 1 0.670822 0.39892 0.5 0.42179 0.594655
285 1 0.172295 0.835356 0.5 -0.0595513 -0.646252
286 1 0.878673 0.501161 0.5 -0.181496 0.766545
287 1 0.267538 0.706174 0.5 -0.493153 -0.762336
288 1 0.735124 0.720916 0.5 -0.197337 -0.320866
289 1 0.893519 0.250195 0.5 0.683694 0.396264
290 1 0.969488 0.845647 0.5 0.513747 0.632706
291 1 0.64547 0.223585 0.5 0.230702 0.216612
292 1 0.375335 0.529214 0.5 -0.11072 0.87985
293 1 0.0579534 0.179715 0.5 -0.888339 -0.0648065
294 1 0.276438 0.347202 0.5 0.255551 0.856668
295 1 0.458752 0.713302 0.5 -0.261311 -0.699831
296 1 0.0265431 0.951192 0.5 0.599597 -0.605567
297 1 0.153402 0.0978563 0.5 -0.770476 -0.281505
298 1 0.169418 0.390087 0.5 0.0801492 -0.355477
299 1 0.141336 0.597311 0.5 0.385647 -0.752452
300 1 0.59153 0.217873 0.5 -0.494692 0.468439
301 1 0.472624 0.888633 0.5 -0.637567 0.46039
302 1 0.136996 0.562681 0.5 0.297127 -0.383605
303 1 0.438731 0.45972 0.5 0.556873 -0.00821372
304 1 0.550971 0.982573 0.5 -0.583602 0.593934
305 1 0.378936 0.308718 0.5 0.149494 -0.610748
306 1 0.496514 0.321467 0.5 -0.202177 -0.838305
307 1 0.854932 0.394288 0.5 -0.0784721 0.625316
308 1 0.615133 0.615672 0.5 -0.737995 -0.381207
309 1 0.790493 0.987204 0.5 0.00592446 0.00217596
310 1 0.135597 0.509428 0.5 -0.306008 -0.360136
311 1 0.112095 0.191678 0.5 -0.372704 -0.385642
312 1 0.378785 0.369859 0.5 0.0159543 0.505643
313 1 0.692312 0.400578 0.5 0.595678 0.292957
314 1 0.0466682 0.593319 0.5 0.741996 -0.40083
315 1 0.129289 0.0241167 0.5 -0.413599 -0.286581
316 1 0.993043 0.224922 0.5 -0.267413 0.717275
317 1 0.407852 0.345739 0.5 0.0178546 0.682542
318 1 0.361252 0.694255 0.5 0.242969 0.0626474
319 1 0.138256 0.0211926 0.5 -0.658622 -0.402107
320 1 0.892804 0.230294 0.5 0.40234 0.623085
321 1 0.0971618 0.444475 0.5 0.328563 -0.77129
322 1 0.380432 0.261764 0.5 0.758549 0.382668
323 1 0.599023 0.27938 0.5 -0.193911 0.521836
324 1 0.362969 0.413545 0.5 0.217302 -0.558048
325 1 0.581844 0.473972 0.5 0.793183 0.434914
326 1 0.551675 0.327709 0.5 0.291841 -0.507557
327 1 0.192234 0.37342 0.5 -0.0291218 0.612308
328 1 0.108834 0.373835 0.5 -0.276479 -0.618596
329 1 0.746477 0.743812 0.5 0.246014 0.0483341
330 1 0.561591 0.482142 0.5 0.148314 -0.0303267
331 1 0.945983 0.175878 0.5 -0.0403912 -0.478483
332 1 0.134132 0.818923 0.5 -0.272692 -0.649929
333 1 0.817063 0.366123 0.5 -0.199726 0.661255
334 1 0.460759 0.0437816 0.5 0.642326 -0.477999
335 1 0.626428 0.198098 0.5 0.854182 -0.124741
336 1 0.975039 0.44579 0.5 0.841502 0.0293631
337 1 0.138279 0.638942 0.5 0.839237 0.340474
338 1 0.915795 0.565268 0.5 -0.634251 -0.108722
339 1 0.571435 0.0441962 0.5 -0.742446 0.488214
340 1 0.15372 0.540668 0.5 -0.400566 -0.760591
341 1 0.10567 0.413138 0.5 0.027061 -0.648161
342 1 0.0225935 0.43887 0.5 0.269918 0.0387699
343 1 0.50113 0.0626344 0.5 0.741549 -0.643846
344 1 0.798052 0.283049 0.5 -0.118709 0.165547
345 1 0.0584571 0.249629 0.5 -0.691521 -0.390458
346 1 0.841101 0.54839 0.5 -0.77557 -0.206115
347 1 0.171026 0.321255 0.5 0.791522 0.128384
348 1 0.812146 0.461015 0.5 -0.125571 0.644593
349 1 0.272423 0.927493 0.5 -0.887136 0.278916
350 1 0.987892 0.530302 0.5 0.881735 -0.22989
351 1 0.971742 0.540289 0.5 0.9112 0.142116
352 1 0.285718 0.603823 0.5 0.753054 0.455303
353 1 0.43403 0.649456 0.5 -0.429827 -0.348495
354 1 0.66943 0.886944 0.5 -0.39987 -0.62375
355 1 0.71801 0.238055 0.5 -0.382581 -0.875766
356 1 0.0468468 0.20501 0.5 -0.27384 -0.125464
357 1 0.181435 0.60251 0.5 0.664158 -0.279206
358 1 0.0466279 0.742706 0.5 0.536988 -0.155524
359 1 0.530272 0.0964749 0.5 0.282137 -0.58435
360 1 0.727253 0.407242 0.5 -0.609384 0.22439
361 1 0.213947 0.586509 0.5 0.483696 -0.153965
362 1 0.837717 0.142785 0.5 0.791153 0.0997585
363 1 0.592491 0.130088 0.5 0.502339 0.560865
364 1 0.745935 0.947309 0.5 0.287839 -0.826352
365 1 0.309943 0.0828345 0.5 -0.290801 0.115775
366 1 0.156617 0.476533 0.5 0.319296 0.744961
367 1 0.170414 0.35377 0.5 -0.611859 0.1679
368 1 0.986319 0.724194 0.5 0.239349 -0.792675
369 1 0.419114 0.485493 0.5 -0.478397 0.336928
370 1 0.955969 0.338115 0.5 0.818287 0.0889927
371 1 0.409291 0.21142 0.5 0.213279 -0.465194
372 1 0.176038 0.212582 0.5 -0.321921 -0.568174
373 1 0.012106 0.0558631 0.5 -0.748542 0.144417
374 1 0.116906 0.769937 0.5 -0.346262 -0.883493
375 1 0.179633 0.0794546 0.5 -0.051074 -0.223024
376 1 0.804194 0.444547 0.5 -0.314276 -0.181123
377 1 0.171655 0.877016 0.5 -0.427762 -0.0391509
378 1 0.87108 0.391969 0.5 0.222925 -0.387173
379 1 0.504395 0.731717 0.5 -0.550828 0.237066
380 1 0.693764 0.721328 0.5 0.884932 0.288814
381 1 0.653605 0.759196 0.5 -0.735142 0.580071
382 1 0.561408 0.253099 0.5 0.491768 -0.050886
383 1 0.517095 0.379619 0.5 0.458475 -0.664625
384 1 0.0478336 0.948236 0.5 0.407741 0.492582
385 1 0.976536 0.891242 0.5 0.219748 -0.200231
386 1 0.0742724 0.214318 0.5 0.00219741 0.282827
387 1 0.199953 0.42293 0.5 -0.208395 0.231929
388 1 0.394449 0.124538 0.5 0.760406 -0.511326
389 1 0.0326156 0.874719 0.5 -0.73355 -0.601768
390 1 0.333086 0.756033 0.5 -0.704455 -0.162951
391 1 0.50537 0.0798361 0.5 0.255604 -0.837513
392 1 0.451951 0.406429 0.5 -0.664674 -0.527435
393 1 0.0910565 0.715077 0.5 -0.240511 0.592577
394 1 0.186896 0.968291 0.5 -0.675771 -0.669172
395 1 0.919388 0.919567 0.5 -0.125344 -0.88837
396 1 0.357477 0.821661 0.5 -0.791928 0.139078
397 1 0.295389 0.78273 0.5 -0.755768 -0.00953645
398 1 0.725105 0.457379 0.5 0.185745 0.355247
399 1 0.653601 0.523135 0.5 -0.609038 0.0519909
400 1 0.469917 0.345348 0.5 0.88116 -0.107892
401 1 0.325697 0.890294 0.5 0.278393 -0.605599
402 1 0.895941 0.347578 0.5 0.701767 -0.126784
403 1 0.239933 0.0477988 0.5 -0.787944 -0.519333
404 1 0.715616 0.455938 0.5 0.12436 0.806547
405 1 0.739678 0.126838 0.5 0.736246 -0.558438
406 1 0.272553 0.896111 0.5 -0.697109 0.622109
407 1 0.0614637 0.696526 0.5 0.569538 -0.443625
408 1 0.454901 0.632941 0.5 -0.540897 0.0890942
409 1 0.348649 0.163188 0.5 -0.550721 -0.212441
410 1 0.648597 0.819149 0.5 -0.940342 0.0692471
411 1 0.502718 0.197357 0.5 0.205725 -0.00906307
412 1 0.244213 0.0836238 0.5 -0.532806 -0.409081
413 1 0.451065 0.319091 0.5 -0.253904 0.602243
414 1 0.383475 0.270973 0.5 0.724284 0.377107
415 1 0.691241 0.217432 0.5 -0.1962 0.58782
416 1 0.422256 0.102468 0.5 0.644566 -0.709883
417 1 0.154762 0.902571 0.5 -0.526725 -0.317098
418 1 0.571842 0.863627 0.5 -0.863839 0.393358
419 1 0.237392 0.252537 0.5 -0.556471 0.272975
420 1 0.272774 0.86523 0.5 -0.683456 0.407416
421 1 0.382213 0.108808 0.5 0.690987 -0.656256
422 1 0.199183 0.553585 0.5 0.255888 -0.619061
423 1 0.393602 0.790785 0.5 -0.970175 0.026438
424 1 0.884276 0.0122552 0.5 -0.355729 -0.480267
425 1 0.0222895 0.497544 0.5 -0.319437 -0.484065
426 1 0.807227 0.610538 0.5 -0.757011 0.29382
427 1 0.467949 0.644972 0.5 0.0900902 0.423779
428 1 0.986952 0.337732 0.5 0.576139 -0.30535
429 1 0.679506 0.924726 0.5 0.564524 0.175615
430 1 0.54081 0.988215 0.5 -0.864257 0.328505
431 1 0.946451 0.312142 0.5 0.610965 0.0555363
432 1 0.333383 0.957481 0.5 -0.824478 0.41369
433 1 0.609792 0.891699 0.5 -0.649096 0.65482
434 1 0.317335 0.434071 0.5 0.0348633 0.565651
435 1 0.397548 0.0969954 0.5 0.545004 -0.725936
436 1 0.17392 0.901119 0.5 -0.603035 -0.3773
437 1 0.912211 0.252957 0.5 0.284264 0.515583
438 1 0.525516 0.738883 0.5 -0.730142 0.345868
439 1 0.229747 0.623676 0.5 0.572965 -0.706017
440 1 0.131101 0.841031 0.5 -0.871107 -0.0761351
441 1 0.303212 0.275452 0.5 0.464213 0.160813
442 1 0.299848 0.943935 0.5 -0.827093 -0.438146
443 1 0.786516 0.965004 0.5 -0.00326961 -0.24246
444 1 0.371041 0.500369 0.5 -0.202485 -0.232123
445 1 0.611836 0.356154 0.5 0.302405 -0.430133
446 1 0.0781542 0.436133 0.5 0.0709396 -0.726458
447 1 0.0437388 0.120951 0.5 -0.770537 0.484941
448 1 0.966073 0.358054 0.5 0.696583 -0.213186
449 1 0.509453 0.30631 0.5 0.436029 -0.447865
450 1 0.386768 0.388536 0.5 -0.42634 0.0418954
451 1 0.134284 0.210665 0.5 0.373529 -0.710331
452 1 0.568402 0.763221 0.5 -0.921041 0.222875
453 1 0.0641477 0.285377 0.5 -0.521035 -0.272752
454 1 0.527945 0.168239 0.5 0.328421 0.0478934
455 1 0.20188 0.502718 0.5 0.421256 0.0218706
456 1 0.643082 0.316368 0.5 -0.150444 -0.0285868
457 1 0.725863 0.22138 0.5 -0.0624772 0.324034
458 1 0.770485 0.791343 0.5 0.665875 -0.281853
459 1 0.73304 0.687006 0.5 0.272665 0.413992
460 1 0.839108 0.915764 0.5 0.36026 0.333
461 1 0.48619 0.64476 0.5 -0.850498 -0.085101
462 1 0.978967 0.109558 0.5 -0.631952 0.520225
463 1 0.948194 0.634162 0.5 -0.202907 -0.535389
464 1 0.638714 0.00524263 0.5 -0.192738 0.833437
465 1 0.607993 0.429697 0.5 0.14096 0.74139
466 1 0.438339 0.805033 0.5 0.25807 -0.379756
467 1 0.749881 0.414201 0.5 -0.0256437 -0.465368
468 1 0.887427 0.717116 0.5 0.564368 0.0297553
469 1 0.118412 0.564403 0.5 0.663626 0.0341099
470 1 0.0307045 0.886074 0.5 0.129761 -0.648653
471 1 0.813385 0.523056 0.5 -0.870748 -0.0428094
472 1 0.523076 0.764481 0.5 -0.401211 0.0900768
473 1 0.486488 0.123487 0.5 -0.0612974 -0.615206
474 1 0.786674 0.193646 0.5 0.498538 0.741634
475 1 0.0232056 0.777114 0.5 0.359624 -0.873804
476 1 0.356202 0.810856 0.5 -0.842788 0.134504
477 1 0.337638 0.92153 0.5 -0.822044 0.496767
478 1 0.967898 0.632149 0.5 0.189923 -0.681088
479 1 0.0308535 0.56557 0.5 0.891525 0.19741
480 1 0.697213 0.301913 0.5 0.456032 0.827741
481 1 0.916824 0.545843 0.5 0.178134 -0.626059
482 1 0.647487 0.330352 0.5 -0.308435 0.265098
483 1 0.00501301 0.897366 0.5 0.369337 -0.745082
484 1 0.719276 0.464916 0.5 0.498943 0.682339
485 1 0.569525 0.211407 0.5 0.763739 0.366036
486 1 0.94522 0.338635 0.5 0.81568 -0.295272
487 1 0.641567 0.600655 0.5 -0.38015 0.0395231
488 1 0.317152 0.666709 0.5 0.354988 0.894465
489 1 0.0368285 0.592459 0.5 0.77121 -0.39418
490 1 0.96196 0.917384 0.5 0.20431 -0.881944
491 1 0.717983 0.754036 0.5 0.437145 0.163153
492 1 0.843207 0.355279 0.5 -0.628383 0.463144
493 1 0.531943 0.838021 0.5 -0.317954 0.239397
494 1 0.919675 0.520173 0.5 -0.524219 0.156572
495 1 0.212175 0.486596 0.5 0.757687 0.299841
496 1 0.859732 0.230425 0.5 0.658464 -0.0564793
497 1 0.258222 0.0415958 0.5 -0.513655 -0.165557
498 1 0.354114 0.531452 0.5 -0.850956 0.0481829
499 1 0.424541 0.120606 0.5 0.539 -0.82888
500 1 0.796336 0.480076 0.5 0.0835778 0.786127
501 1 0.00499743 0.592006 0.5 0.831098 0.0471465
502 1 0.0795306 0.493165 0.5 0.72433 -0.589368
503 1 0.578105 0.406185 0.5 0.8671 0.278703
504 1 0.202769 0.244673 0.5 0.330248 0.441729
505 1 0.999835 0.164267 0.5 0.125195 -0.140442
506 1 0.337866 0.260846 0.5 0.840908 0.366117
507 1 0.636865 0.538064 0.5 -0.101238 0.628121
508 1 0.423752 0.468945 0.5 0.503118 0.163092
509 1 0.92223 0.202419 0.5 -0.444953 0.460154
510 1 0.0749505 0.987541 0.5 -0.549185 -0.714714
511 1 0.613157 0.0926233 0.5 0.507977 -0.740725
512 1 0.602396 0.897896 0.5 -0.743157 0.543239
513 1 0.905507 0.743466 0.5 0.208205 -0.918717
514 1 0.468438 0.783138 0.5 -0.339391 0.174407
515 1 0.633247 0.852941 0.5 -0.84167 0.0603041
516 1 0.428404 0.111094 0.5 0.448387 -0.796983
517 1 0.125213 0.736295 0.5 -0.495452 0.0978144
518 1 0.163801 0.689443 0.5 0.00986143 0.678674
519 1 0.222218 0.569072 0.5 0.338687 -0.653189
520 1 0.461122 0.603966 0.5 -0.160903 0.773442
521 1 0.653939 0.0273187 0.5 0.327332 -0.125205
522 1 0.308447 0.2839 0.5 0.87163 -0.0840449
523 1 0.407449 0.500767 0.5 -0.84999 0.0664993
524 1 0.273157 0.0294027 0.5 -0.836581 0.167091
525 1 0.662985 0.520636 0.5 -0.360747 0.0413453
526 1 0.0120486 0.255701 0.5 -0.487596 0.247948
527 1 0.156985 0.312884 0.5 -0.0490525 0.314082
528 1 0.328278 0.0529593 0.5 -0.743548 -0.19424
529 1 0.507801 0.955244 0.5 0.0364744 0.879746
530 1 0.182432 0.0397849 0.5 -0.821136 -0.0139933
531 1 0.875176 0.13614 0.5 0.742735 0.104875
532 1 0.721625 0.788342 0.5 0.671292 -0.670613
533 1 0.104198 0.463441 0.5 -0.041485 -0.711798
534 1 0.33324 0.140168 0.5 -0.0944357 0.191763
535 1 0.791692 0.653412 0.5 -0.798642 0.458286
536 1 0.610852 0.439974 0.5 0.191476 0.312369
537 1 0.531015 0.70336 0.5 -0.732561 0.384863
538 1 0.22444 0.277176 0.5 0.384137 0.86973
539 1 0.172936 0.440881 0.5 0.719296 -0.674124
540 1 0.739186 0.169447 0.5 0.319522 0.344947
541 1 0.380471 0.600205 0.5 -0.960242 0.0986315
542 1 0.684301 0.768716 0.5 -0.0460797 0.67957
543 1 0.608996 0.253455 0.5 -0.418925 -0.498905
544 1 0.517114 0.956862 0.5 0.148354 0.367852
545 1 0.514211 0.916004 0.5 -0.392353 0.335778
546 1 0.264355 0.627297 0.5 0.0814245 0.510266
547 1 0.189327 0.314802 0.5 0.0167177 0.832115
548 1 0.130942 0.32165 0.5 0.554319 0.376018
549 1 0.733119 0.0831252 0.5 0.358013 0.123023
550 1 0.487994 0.821526 0.5 -0.183738 -0.804282
551 1 0.619812 0.32585 0.5 -0.194531 -0.193777
552 1 0.741563 0.569718 0.5 -0.650552 0.703737
553 1 0.521216 0.708753 0.5 -0.757715 0.108696
554 1 0.778238 0.608061 0.5 0.288108 0.662303
555 1 0.122029 0.474406 0.5 -0.0209675 -0.0871105
556 1 0.310327 0.587615 0.5 0.0675513 0.796327
557 1 0.110716 0.0485525 0.5 -0.412935 0.130861
558 1 0.664261 0.228738 0.5 -0.158513 0.613707
559 1 0.758214 0.349527 0.5 -0.400689 0.715775
560 1 0.549943 0.691498 0.5 -0.109488 0.14436
561 1 0.535392 0.888129 0.5 -0.376698 0.848764
562 1 0.894808 0.161168 0.5 0.0944623 -0.0394412
563 1 0.0245583 0.375518 0.5 0.366551 -0.29616
564 1 0.46194 0.873983 0.5 -0.57505 0.660066
565 1 0.431178 0.977473 0.5 -0.547083 -0.610167
566 1 0.0589347 0.854996 0.5 -0.023747 -0.599306
567 1 0.501847 0.683973 0.5 -0.257642 -0.0897339
568 1 0.297404 0.0982893 0.5 0.446349 0.484348
569 1 0.0262918 0.133926 0.5 -0.738614 0.506081
570 1 0.31714 0.967322 0.5 -0.525663 0.0836099
571 1 0.186463 0.457883 0.5 0.857516 -0.288726
572 1 0.498664 0.806889 0.5 -0.841086 0.284749
573 1 0.578746 0.275969 0.5 0.0571929 0.0132986
574 1 0.315567 0.45841 0.5 -0.017434 -0.497758
575 1 0.40684 0.194302 0.5 0.340575 0.043743
576 1 0.715291 0.608294 0.5 0.101516 -0.15255
577 1 0.635119 0.310668 0.5 0.316945 0.012292
578 1 0.656308 0.532459 0.5 -0.479635 0.284247
579 1 0.11895 0.271042 0.5 -0.581909 0.516996
580 1 0.949543 0.225242 0.5 -0.233871 0.157276
581 1 0.321672 0.571706 0.5 -0.119788 0.700703
582 1 0.144359 0.0468878 0.5 -0.723908 -0.502102
583 1 0.928215 0.916118 0.5 -0.0513578 0.0421033
584 1 0.0337527 0.668549 0.5 0.199507 -0.0307376
585 1 0.62792 0.393603 0.5 0.186306 -0.906007
586 1 0.642877 0.612088 0.5 -0.43338 0.149434
587 1 0.346751 0.205687 0.5 -0.146746 0.803674
588 1 0.282401 0.920197 0.5 -0.5239 -0.124647
589 1 0.476714 0.216374 0.5 0.86298 0.177189
590 1 0.95845 0.0142175 0.5 0.523276 -0.241866
591 1 0.35514 0.0658111 0.5 0.462527 0.146884
592 1 0.487246 0.74943 0.5 -0.770741 0.114384
593 1 0.814607 0.217862 0.5 0.854867 0.294162
594 1 0.46406 0.824045 0.5 -0.346498 0.729504
595 1 0.708783 0.031263 0.5 0.453914 -0.137594
596 1 0.605526 0.199043 0.5 0.702645 -0.261841
597 1 0.427612 0.164746 0.5 0.57321 -0.671796
598 1 0.968388 0.755773 0.5 -0.265514 -0.879458
599 1 0.53086 0.858418 0.5 -0.675439 0.0440431
600 1 0.752621 0.786202 0.5 0.651985 -0.631061
601 1 0.658052 0.269515 0.5 -0.501263 -0.0273429
602 1 0.401172 0.131884 0.5 0.703168 -0.466854
603 1 0.904646 0.0815677 0.5 -0.919938 0.18062
604 1 0.40627 0.460591 0.5 0.334649 0.327621
605 1 0.644531 0.29253 0.5 0.527111 0.660857
606 1 0.889487 0.988702 0.5 0.00930145 -0.290443
607 1 0.88945 0.575751 0.5 0.272511 0.92089
608 1 0.660831 0.396011 0.5 0.129308 0.518145
609 1 0.499191 0.160632 0.5 -0.0952979 -0.495186
610 1 0.347016 0.039495 0.5 -0.2276 0.784029
611 1 0.579845 0.00356804 0.5 -0.763058 0.47852
612 1 0.0755594 0.170493 0.5 -0.613107 -0.403899
613 1 0.948631 0.723559 0.5 -0.150836 -0.901093
614 1 0.64673 0.796672 0.5 -0.618897 0.12904
615 1 0.406279 0.0678332 0.5 0.722425 -0.419726
616 1 0.0726365 0.426611 0.5 -0.137428 -0.462042
617 1 0.361481 0.727313 0.5 0.188075 0.468124
618 1 0.952311 0.207621 0.5 0.0114392 0.441436
619 1 0.557686 0.975462 0.5 -0.360413 0.881257
620 1 0.26696 0.786315 0.5 -0.538642 -0.75411
621 1 0.224 0.116757 0.5 0.33379 -0.602957
622 1 0.800319 0.178532 0.5 0.735315 0.392931
623 1 0.720679 0.0791645 0.5 -0.444947 -0.246966
624 1 0.0582646 0.191585 0.5 -0.751584 -0.0536338
625 1 0.185046 0.209804 0.5 -0.545539 -0.718324
626 1 0.696892 0.920932 0.5 -0.106198 0.516157
627 1 0.226043 0.559167 0.5 0.357682 -0.415528
628 1 0.39041 0.0567897 0.5 0.484457 -0.387386
629 1 0.255922 0.508737 0.5 0.0762874 0.000185274
630 1 0.190687 0.502375 0.5 0.0112668 -0.243831
631 1 0.855216 0.240262 0.5 0.795616 -0.0167049
632 1 0.50149 0.18001 0.5 0.871275 -0.386635
633 1 0.840525 0.679052 0.5 -0.847929 0.400389
634 1 0.477958 0.0483405 0.5 0.426987 -0.743658