ITEM: TIMESTEP
0
ITEM: NUMBER OF ATOMS
9945
ITEM: BOX BOUNDS pp pp pp
-5.8359999999999999e+01 5.8359999999999999e+01
-5.8359999999999999e+01 5.8359999999999999e+01
-5.0000000000000000e-01 5.0000000000000000e-01
ITEM: ATOMS id type xs ys zs c_002[1] c_002[2]
1 1 0.776279 0.988211 0.5 0.283544 -0.406908
2 1 0.0497381 0.973008 0.5 0.121579 0.0365716
3 1 0.961604 0.914508 0.5 -0.331257 0.297508
4 1 0.323912 0.199473 0.5 0.73295 0.234343
5 1 0.699949 0.884897 0.5 0.412468 -0.643187
6 1 0.86291 0.865453 0.5 0.0822008 0.0766317
7 1 0.552039 0.823164 0.5 0.52196 0.148381
8 1 0.906628 0.740081 0.5 0.521151 -0.514134
9 1 0.638169 0.167169 0.5 -0.103956 -0.0932564
10 1 0.378683 0.00123663 0.5 0.829896 0.220827
11 1 0.584259 0.688299 0.5 0.149546 -0.423866
12 1 0.293292 0.0586233 0.5 0.816404 0.291769
13 1 0.421201 0.956983 0.5 0.631687 0.609274
14 1 0.758749 0.192321 0.5 -0.404036 0.315541
15 1 0.0153603 0.112137 0.5 -0.652329 -0.271747
16 1 0.732584 0.255224 0.5 0.607799 -0.261797
17 1 0.954962 0.676624 0.5 -0.646117 0.699387
18 1 0.531394 0.801839 0.5 0.577925 0.475327
19 1 0.858717 0.801929 0.5 0.164357 0.399296
20 1 0.871365 0.921501 0.5 0.328359 0.338034
21 1 0.739773 0.434072 0.5 0.252869 0.61832
22 1 0.806058 0.771393 0.5 -0.552171 0.387388
23 1 0.373316 0.198409 0.5 -0.0178643 -0.799583
24 1 0.994461 0.334763 0.5 -0.208951 0.345388
25 1 0.898949 0.860363 0.5 0.486791 -0.28277
26 1 0.69709 0.0040583 0.5 0.679043 -0.259005
27 1 0.897635 0.831572 0.5 0.24736 -0.284
28 1 0.802814 0.707901 0.5 0.320316 -0.0815828
29 1 0.00299722 0.897586 0.5 -0.458945 0.160352
30 1 0.500441 0.910239 0.5 0.626107 0.609062
31 1 0.892957 0.740027 0.5 0.222699 -0.116721
32 1 0.985105 0.68197 0.5 0.606934 0.262966
33 1 0.628889 0.5199 0.5 0.568476 -0.277565
34 1 0.442121 0.16039 0.5 -0.416146 -0.64916
35 1 0.640197 0.305927 0.5 -0.743656 -0.374081
36 1 0.425136 0.252124 0.5 0.0912893 0.946482
37 1 0.936285 0.960833 0.5 -0.233745 0.221706
38 1 0.703265 0.228676 0.5 0.592924 -0.160193
39 1 0.8693 0.108758 0.5 -0.649284 0.456859
40 1 0.864554 0.8313 0.5 -0.516386 -0.386242
41 1 0.638671 0.451549 0.5 0.323212 -0.593589
42 1 0.9336 0.107641 0.5 -0.375159 0.655293
43 1 0.0163964 0.102336 0.5 -0.649338 0.0588777
44 1 0.789842 0.882397 0.5 -0.683715 -0.545838
45 1 0.595955 0.110726 0.5 0.701634 -0.546333
46 1 0.944926 0.483376 0.5 -0.326202 0.276782
47 1 0.861557 0.145964 0.5 -0.548233 0.742532
48 1 0.936813 0.868255 0.5 -0.618261 -0.652399
49 1 0.869241 0.429933 0.5 -0.231429 0.730481
50 1 0.860111 0.35549 0.5 -0.546053 0.773577
51 1 0.408557 0.973925 0.5 0.829281 0.4155
52 1 0.199476 0.190468 0.5 0.787875 0.253214
53 1 0.811468 0.253977 0.5 0.114053 0.83973
54 1 0.305974 0.207545 0.5 0.707033 0.644941
55 1 0.502053 0.781856 0.5 0.288825 0.647058
56 1 0.746367 0.701736 0.5 0.211754 0.720056
57 1 0.930507 0.0732424 0.5 -0.353156 -0.821352
58 1 0.745264 0.243618 0.5 0.712063 -0.160123
59 1 0.784089 0.912578 0.5 -0.570331 -0.774705
60 1 0.804371 0.516453 0.5 0.306913 0.357428
61 1 0.792843 0.006183 0.5 0.0109432 0.369165
62 1 0.884863 0.961796 0.5 0.467075 0.19966
63 1 0.579385 0.0563665 0.5 -0.0208466 0.277189
64 1 0.0242702 0.0643175 0.5 -0.562645 0.698417
65 1 0.726832 0.0796465 0.5 -0.266306 0.664618
66 1 0.726226 0.541404 0.5 -0.281328 0.450739
67 1 0.846521 0.299521 0.5 -0.650263 0.0753369
68 1 0.9714 0.698985 0.5 0.0903578 0.787569
69 1 0.951949 0.095189 0.5 -0.323014 0.57636
70 1 0.489654 0.00410425 0.5 0.514249 0.484199
71 1 0.592245 0.553883 0.5 0.368229 -0.864891
72 1 0.730135 0.85995 0.5 -0.504357 -0.233695
73 1 0.17785 0.0593281 0.5 0.95561 0.0166825
74 1 0.611465 0.65991 0.5 0.0932251 -0.606588
75 1 0.827221 0.299175 0.5 -0.562847 0.328392
76 1 0.799519 0.648315 0.5 -0.641786 0.300704
77 1 0.337702 0.980455 0.5 0.569096 0.617469
78 1 0.345688 0.824902 0.5 0.599758 0.649022
79 1 0.62328 0.0137625 0.5 0.0685184 0.429115
80 1 0.717338 0.927812 0.5 -0.445498 -0.826932
81 1 0.518361 0.189378 0.5 -0.692161 -0.117239
82 1 0.361113 0.111052 0.5 0.575866 0.298007
83 1 0.745663 0.917626 0.5 -0.573433 -0.706864
84 1 0.454107 0.656904 0.5 0.377668 0.137816
85 1 0.151313 0.184059 0.5 0.107784 -0.676033
86 1 0.765788 0.762443 0.5 0.269095 0.870779
87 1 0.817721 0.785172 0.5 -0.0668226 0.728478
88 1 0.0170833 0.322687 0.5 0.290672 0.132788
89 1 0.758201 0.00821555 0.5 0.436299 -0.396068
90 1 0.338131 0.187584 0.5 0.116769 -0.158496
91 1 0.174681 0.363972 0.5 -0.0621507 0.505319
92 1 0.61917 0.060552 0.5 0.768021 -0.599621
93 1 0.81041 0.678709 0.5 -0.154774 -0.121292
94 1 0.311939 0.0323607 0.5 0.56728 0.801725
95 1 0.715055 0.751845 0.5 0.503673 0.805869
96 1 0.620529 0.967553 0.5 -0.0689154 -0.810999
97 1 0.224115 0.838641 0.5 -0.0177811 0.443381
98 1 0.670294 0.921936 0.5 0.0479288 -0.889333
99 1 0.542016 0.847591 0.5 0.939279 0.221792
100 1 0.247235 0.91718 0.5 -0.688235 -0.343805
101 1 0.56552 0.0440019 0.5 -0.0602157 0.826178
102 1 0.358367 0.87161 0.5 0.811797 -0.125325
103 1 0.574047 0.397941 0.5 -0.0940061 -0.504967
104 1 0.210372 0.73549 0.5 0.216061 -0.444694
105 1 0.52602 0.584214 0.5 0.546678 -0.240551
106 1 0.934771 0.878376 0.5 -0.723123 -0.505374
107 1 0.614028 0.358743 0.5 -0.084138 -0.765151
108 1 0.248389 0.166732 0.5 0.380028 0.438619
109 1 0.815353 0.444567 0.5 0.84796 0.265748
110 1 0.059095 0.0510301 0.5 -0.538359 0.539309
111 1 0.785945 0.524342 0.5 0.14185 0.81133
112 1 0.792425 0.249259 0.5 -0.161696 0.569168
113 1 0.0695658 0.120373 0.5 -0.89408 0.0617323
114 1 0.99342 0.969346 0.5 0.795881 -0.155003
115 1 0.214266 0.229204 0.5 0.196167 0.505247
116 1 0.721569 0.386815 0.5 -0.214421 0.1473
117 1 0.770111 0.88964 0.5 -0.470138 -0.809385
118 1 0.885316 0.689206 0.5 0.0243832 0.492592
119 1 0.795354 0.32717 0.5 -0.586193 0.519596
120 1 0.64351 0.546453 0.5 0.341596 -0.50355
121 1 0.797508 0.638999 0.5 -0.836667 0.288553
122 1 0.485197 0.723767 0.5 0.437212 0.140965
123 1 0.535646 0.12945 0.5 -0.865429 -0.399713
124 1 0.0282874 0.883931 0.5 -0.00467464 -0.195195
125 1 0.709354 0.920926 0.5 -0.205447 -0.893544
126 1 0.315948 0.140599 0.5 0.670166 -0.217964
127 1 0.125858 0.533523 0.5 0.341195 0.116667
128 1 0.672587 0.774349 0.5 0.214441 0.164442
129 1 0.623329 0.20645 0.5 0.416052 -0.059251
130 1 0.878454 0.262645 0.5 -0.220256 0.591704
131 1 0.666272 0.0688345 0.5 0.788883 -0.30718
132 1 0.152693 0.58538 0.5 0.888752 0.341886
133 1 0.176729 0.146374 0.5 0.0666712 -0.868105
134 1 0.641172 0.114933 0.5 -0.0230321 -0.71138
135 1 0.621558 0.30532 0.5 -0.854683 -0.212593
136 1 0.948188 0.508502 0.5 -0.0737307 0.51676
137 1 0.73326 0.881556 0.5 -0.358472 -0.225341
138 1 0.368924 0.308902 0.5 0.608208 0.271882
139 1 0.68981 0.866721 0.5 0.194405 0.617408
140 1 0.179768 0.270194 0.5 0.729933 0.0710543
141 1 0.59567 0.0445018 0.5 0.180279 -0.141206
142 1 0.923821 0.607612 0.5 -0.204763 0.53965
143 1 0.421885 0.204578 0.5 -0.403467 0.658179
144 1 0.0938774 0.141081 0.5 0.859563 0.05229
145 1 0.346381 0.750733 0.5 0.897569 -0.0849099
146 1 0.765263 0.592348 0.5 0.654896 -0.367188
147 1 0.648722 0.84339 0.5 0.239531 0.699764
148 1 0.818052 0.168361 0.5 -0.632966 0.524204
149 1 0.699934 0.168797 0.5 -0.545881 -0.139297
150 1 0.709254 0.554514 0.5 -0.318769 0.614562
151 1 0.874916 0.537251 0.5 0.155103 0.886691
152 1 0.757504 0.215302 0.5 -0.706132 0.248479
153 1 0.705999 0.776332 0.5 0.551298 0.569621
154 1 0.129899 0.825764 0.5 0.952015 -0.161818
155 1 0.918525 0.267975 0.5 -0.259487 0.512337
156 1 0.380061 0.227072 0.5 0.229582 -0.128459
157 1 0.701333 0.995279 0.5 0.728155 -0.0320334
158 1 0.471796 0.238602 0.5 -0.178926 0.10726
159 1 0.0053557 0.0865242 0.5 -0.391722 0.583453
160 1 0.277281 0.857182 0.5 0.913318 -0.140662
161 1 0.646756 0.134027 0.5 -0.401079 0.254347
162 1 0.947702 0.268829 0.5 -0.327919 -0.611709
163 1 0.493145 0.80968 0.5 0.806741 0.49938
164 1 0.433877 0.730765 0.5 0.845532 0.218455
165 1 0.358129 0.466201 0.5 0.810044 0.216975
166 1 0.545357 0.0963552 0.5 0.59898 0.580422
167 1 0.755302 0.33044 0.5 -0.0792594 -0.403844
168 1 0.700718 0.97966 0.5 -0.546702 -0.489085
169 1 0.484737 0.835044 0.5 0.795545 0.404702
170 1 0.933734 0.771032 0.5 -0.719456 -0.483188
171 1 0.703406 0.0151801 0.5 0.43835 -0.474507
172 1 0.581797 0.869532 0.5 0.20683 0.837044
173 1 0.512394 0.245448 0.5 0.508637 -0.779383
174 1 0.12417 0.744008 0.5 -0.725297 -0.00445024
175 1 0.229104 0.140782 0.5 0.668775 -0.0781171
176 1 0.985814 0.866508 0.5 0.332482 0.797397
177 1 0.998189 0.347103 0.5 0.214091 -0.483725
178 1 0.725324 0.118755 0.5 -0.500096 0.178804
179 1 0.651275 0.997861 0.5 0.554704 0.47966
180 1 0.696996 0.381153 0.5 -0.0988088 0.743024
181 1 0.647056 0.122406 0.5 -0.417973 -0.36559
182 1 0.891548 0.286516 0.5 -0.765137 0.575685
183 1 0.673601 0.0339418 0.5 0.662856 -0.367836
184 1 0.813927 0.0645614 0.5 0.0470033 -0.175166
185 1 0.748999 0.998009 0.5 0.649461 -0.595803
186 1 0.269287 0.718914 0.5 0.561197 -0.714762
187 1 0.556314 0.258497 0.5 -0.480303 -0.855546
188 1 0.982078 0.278115 0.5 0.270984 0.279403
189 1 0.431916 0.0218489 0.5 0.74213 0.466622
190 1 0.599999 0.210878 0.5 0.18827 0.0591178
191 1 0.554137 0.116884 0.5 0.227178 -0.0809077
192 1 0.41818 0.616051 0.5 0.770305 0.0186987
193 1 0.914897 0.255531 0.5 -0.143306 0.653063
194 1 0.706845 0.33025 0.5 0.21754 -0.607682
195 1 0.317914 0.262259 0.5 0.745823 0.286644
196 1 0.020058 0.305727 0.5 0.0274912 0.744289
197 1 0.470268 0.670121 0.5 0.318642 0.327597
198 1 0.957748 0.381307 0.5 0.226997 0.361762
199 1 0.98916 0.544773 0.5 0.501916 0.550104
200 1 0.786261 0.352242 0.5 -0.634738 0.199099
201 1 0.729913 0.735354 0.5 0.304067 0.754402
202 1 0.0231779 0.0953406 0.5 -0.527736 -0.0383243
203 1 0.217725 0.827294 0.5 0.453101 -0.00432675
204 1 0.816145 0.734818 0.5 0.908633 -0.174923
205 1 0.463828 0.931567 0.5 0.427661 0.302967
206 1 0.554836 0.219201 0.5 -0.143295 -0.89376
207 1 0.940853 0.25105 0.5 -0.806746 0.15349
208 1 0.859849 0.693853 0.5 0.48714 0.725129
209 1 0.677049 0.882937 0.5 0.425225 0.773889
210 1 0.205618 0.0051398 0.5 0.0755513 -0.428092
211 1 0.845089 0.158197 0.5 -0.675382 0.354372
212 1 0.661014 0.767776 0.5 -0.285146 -0.0365378
213 1 0.188978 0.245014 0.5 0.492517 0.318056
214 1 0.684333 0.0499384 0.5 0.57173 0.260018
215 1 0.647091 0.264199 0.5 0.176148 -0.60951
216 1 0.948024 0.0741862 0.5 -0.542515 0.634863
217 1 0.81286 0.105841 0.5 -0.29705 0.192237
218 1 0.304583 0.805276 0.5 0.600098 0.326702
219 1 0.65532 0.635119 0.5 0.00947182 0.899211
220 1 0.832514 0.0780345 0.5 -0.123765 -0.035088
221 1 0.76195 0.0432177 0.5 0.882939 -0.42447
222 1 0.808334 0.810185 0.5 -0.239977 0.561855
223 1 0.403617 0.460305 0.5 0.69986 -0.538172
224 1 0.954445 0.479152 0.5 -0.530196 0.482215
225 1 0.728521 0.0585685 0.5 -0.2323 -0.695897
226 1 0.681529 0.118633 0.5 0.0603753 0.473663
227 1 0.440332 0.13384 0.5 -0.0362234 -0.757061
228 1 0.651352 0.86922 0.5 0.677716 0.583825
229 1 0.0395676 0.0169797 0.5 -0.364593 0.0887535
230 1 0.935895 0.920008 0.5 -0.915884 0.363983
231 1 0.777552 0.801196 0.5 0.529657 0.589596
232 1 0.916661 0.624392 0.5 0.28807 0.644272
233 1 0.971715 0.402332 0.5 -0.512874 -0.0846326
234 1 0.282064 0.821705 0.5 0.853631 0.0868798
235 1 0.3119 0.760996 0.5 0.6516 -0.37288
236 1 0.182772 0.181538 0.5 0.565144 -0.690144
237 1 0.171722 0.0160852 0.5 0.483025 -0.436676
238 1 0.73116 0.0472644 0.5 0.193861 -0.957791
239 1 0.856549 0.780427 0.5 -0.368402 0.156503
240 1 0.718467 0.733305 0.5 0.318556 0.91596
241 1 0.0341607 0.530962 0.5 0.461286 0.678167
242 1 0.817893 0.962697 0.5 -0.403871 -0.127918
243 1 0.652495 0.825334 0.5 0.0939349 0.757112
244 1 0.338169 0.142779 0.5 -0.23028 0.409762
245 1 0.916607 0.357927 0.5 -0.516536 0.796221
246 1 0.490781 0.635854 0.5 -0.580414 0.706593
247 1 0.699941 0.786216 0.5 0.473902 0.753553
248 1 0.547595 0.923326 0.5 0.756224 0.288857
249 1 0.653098 0.916564 0.5 -0.710067 -0.365679
250 1 0.0395437 0.119572 0.5 -0.422744 0.0477883
251 1 0.6402 0.78277 0.5 0.412289 0.793137
252 1 0.653038 0.0338281 0.5 0.67775 -0.109928
253 1 0.715686 0.890329 0.5 -0.209735 -0.680092
254 1 0.616123 0.915078 0.5 -0.553782 0.167975
255 1 0.746817 0.979885 0.5 0.427692 -0.828557
256 1 0.497648 0.817985 0.5 0.947859 0.175132
257 1 0.401475 0.00217818 0.5 0.691118 0.292093
258 1 0.939408 0.157857 0.5 -0.581963 0.519145
259 1 0.34237 0.0703155 0.5 0.851872 -0.00274447
260 1 0.684429 0.685736 0.5 -0.911022 0.0426839
261 1 0.035783 0.972982 0.5 0.526501 0.0465985
262 1 0.157695 0.727997 0.5 -0.492176 0.491306
263 1 0.880958 0.595128 0.5 0.648343 0.676648
264 1 0.864957 0.0335488 0.5 -0.313537 0.255045
265 1 0.116372 0.890727 0.5 0.714647 -0.560907
266 1 0.427885 0.690825 0.5 0.0847836 0.360691
267 1 0.153525 0.745092 0.5 0.0354305 0.714241
268 1 0.508596 0.342897 0.5 -0.255125 -0.857471
269 1 0.276975 0.263202 0.5 0.777439 0.165266
270 1 0.924507 0.645938 0.5 0.338251 0.527619
271 1 0.631193 0.289536 0.5 -0.536285 -0.656711
272 1 0.462567 0.741723 0.5 0.485627 0.796941
273 1 0.411885 0.201764 0.5 0.463108 0.429697
274 1 0.577605 0.300746 0.5 -0.245131 -0.756031
275 1 0.0959601 0.103347 0.5 -0.937875 0.0457223
276 1 0.951351 0.233558 0.5 0.0519295 0.500389
277 1 0.726652 0.698922 0.5 0.589633 0.782378
278 1 0.45998 0.0457947 0.5 0.610706 0.412412
279 1 0.783428 0.00653868 0.5 -0.0636416 0.459671
280 1 0.108902 0.41894 0.5 -0.735308 -0.025628
281 1 0.410023 0.589607 0.5 0.485238 0.367563
282 1 0.970032 0.661945 0.5 0.213369 0.886493
283 1 0.201135 0.988721 0.5 -0.0197428 -0.938921
284 1 0.865105 0.563415 0.5 -0.161594 0.713824
285 1 0.0299488 0.607376 0.5 -0.313818 -0.10308
286 1 0.227313 0.659257 0.5 0.495033 -0.401788
287 1 0.576945 0.203345 0.5 -0.147798 -0.899256
288 1 0.841364 0.0925825 0.5 -0.858718 0.00343265
289 1 0.696617 0.932816 0.5 0.0548321 -0.961849
290 1 0.110709 0.917465 0.5 0.812391 -0.176147
291 1 0.197978 0.395679 0.5 0.911389 0.215202
292 1 0.831785 0.800102 0.5 -0.394679 -0.127702
293 1 0.0246065 0.35201 0.5 -0.0591612 -0.324085
294 1 0.499809 0.66065 0.5 -0.697628 0.363685
295 1 0.643576 0.00566587 0.5 -0.0633777 0.54854
296 1 0.745421 0.0759618 0.5 0.276263 0.0526909
297 1 0.646163 0.832518 0.5 0.216533 0.924522
298 1 0.665404 0.941399 0.5 -0.0757371 -0.790796
299 1 0.218293 0.769853 0.5 0.115603 -0.453434
300 1 0.734799 0.244227 0.5 0.623674 -0.438134
301 1 0.77092 0.879312 0.5 -0.593488 -0.711717
302 1 0.581359 0.698101 0.5 0.67798 -0.36802
303 1 0.671909 0.997124 0.5 0.500774 -0.446574
304 1 0.93065 0.598721 0.5 0.392112 0.856505
305 1 0.311089 0.199583 0.5 0.582691 0.404757
306 1 0.989913 0.201352 0.5 -0.839398 0.327823
307 1 0.334269 0.232822 0.5 0.745084 0.551117
308 1 0.70995 0.254785 0.5 0.916269 0.071133
309 1 0.246224 0.187959 0.5 0.381461 0.323204
310 1 0.991509 0.480896 0.5 0.221966 0.44716
311 1 0.720034 0.176596 0.5 0.350663 0.104814
312 1 0.541628 0.197506 0.5 0.139435 -0.62104
313 1 0.82135 0.0213185 0.5 -0.892466 0.229114
314 1 0.0504955 0.262462 0.5 0.942105 0.114138
315 1 0.314894 0.160097 0.5 0.760684 0.533238
316 1 0.82211 0.0314844 0.5 -0.700529 0.302273
317 1 0.94725 0.291817 0.5 -0.934972 0.279711
318 1 0.678238 0.640858 0.5 -0.00779634 0.732491
319 1 0.430825 0.136069 0.5 0.405459 -0.745344
320 1 0.849273 0.483846 0.5 -0.501569 0.459109
321 1 0.386676 0.359269 0.5 0.235681 -0.0857393
322 1 0.999959 0.877262 0.5 -0.475435 0.657684
323 1 0.0764189 0.47203 0.5 0.849028 -0.258383
324 1 0.254915 0.66723 0.5 0.659979 -0.41965
325 1 0.585223 0.546862 0.5 0.292824 -0.870874
326 1 0.471252 0.7729 0.5 0.459582 0.0524576
327 1 0.274333 0.579097 0.5 0.910394 0.0732084
328 1 0.462255 0.412156 0.5 0.280285 -0.484104
329 1 0.35698 0.147684 0.5 0.47178 0.63183
330 1 0.403796 0.550964 0.5 0.583907 0.757203
331 1 0.897217 0.124645 0.5 -0.553386 0.68255
332 1 0.805474 0.734925 0.5 0.961158 -0.0496211
333 1 0.853792 0.153453 0.5 -0.675075 0.516246
334 1 0.710828 0.205279 0.5 0.406836 -0.675759
335 1 0.496421 0.100145 0.5 -0.214335 0.312913
336 1 0.911802 0.159296 0.5 0.14265 0.112748
337 1 0.234534 0.781003 0.5 0.729946 -0.115238
338 1 0.0214082 0.711625 0.5 0.0800177 0.990886
339 1 0.591765 0.082467 0.5 -0.037259 -0.550004
340 1 0.31578 0.555509 0.5 0.677608 0.0831792
341 1 0.0615353 0.413686 0.5 -0.117915 0.56964
342 1 0.634329 0.907406 0.5 -0.767565 -0.150185
343 1 0.979483 0.570923 0.5 0.270688 0.770862
344 1 0.231673 0.361731 0.5 0.662139 0.480347
345 1 0.080453 0.379325 0.5 0.497732 -0.501405
346 1 0.950336 0.333051 0.5 -0.800928 0.496809
347 1 0.310324 0.697128 0.5 0.657049 -0.664591
348 1 0.289027 0.792049 0.5 0.818717 -0.0718689
349 1 0.866666 0.875796 0.5 0.300328 0.106989
350 1 0.698705 0.179799 0.5 -0.845416 -0.382028
351 1 0.244302 0.589031 0.5 0.167782 -0.300819
352 1 0.618817 0.996185 0.5 0.179739 0.134496
353 1 0.629263 0.0330675 0.5 0.6031 -0.016667
354 1 0.0941848 0.188883 0.5 -0.782127 0.0741361
355 1 0.0640185 0.00185325 0.5 -0.43399 0.468689
356 1 0.738936 0.910909 0.5 -0.462532 -0.717838
357 1 0.394698 0.674682 0.5 0.158695 0.839618
358 1 0.344159 0.234387 0.5 0.667462 0.706732
359 1 0.104829 0.7396 0.5 -0.227348 -0.862125
360 1 0.633292 0.39746 0.5 -0.675842 -0.214175
361 1 0.0489599 0.307475 0.5 0.100794 -0.578995
362 1 0.0560569 0.454236 0.5 0.675065 0.422934
363 1 0.650003 0.303082 0.5 -0.795954 -0.217809
364 1 0.123233 0.22333 0.5 -0.579861 0.466926
365 1 0.235836 0.259006 0.5 0.0586445 0.92655
366 1 0.703313 0.529798 0.5 0.469233 0.0369287
367 1 0.993104 0.580089 0.5 0.214612 0.615087
368 1 0.342382 0.843851 0.5 0.58453 0.636777
369 1 0.382329 0.389405 0.5 0.783856 -0.348949
370 1 0.408677 0.811724 0.5 0.541942 0.223436
371 1 0.495338 0.0136405 0.5 0.871021 0.382443
372 1 0.651848 0.50515 0.5 0.204547 -0.677933
373 1 0.294927 0.594721 0.5 0.67202 -0.258415
374 1 0.65276 0.662261 0.5 0.205155 0.317122
375 1 0.147112 0.407835 0.5 -0.380696 -0.0016232
376 1 0.535451 0.180031 0.5 -0.826438 -0.45916
377 1 0.141519 0.601379 0.5 0.835947 0.368813
378 1 0.0100604 0.373036 0.5 -0.487318 -0.61948
379 1 0.629035 0.0592801 0.5 0.822182 -0.504306
380 1 0.58028 0.349929 0.5 -0.616026 -0.618834
381 1 0.0460402 0.425492 0.5 -0.220765 0.898999
382 1 0.776268 0.0691827 0.5 0.779759 -0.289397
383 1 0.0388484 0.346102 0.5 0.304416 0.576994
384 1 0.0390178 0.0283741 0.5 -0.718219 0.342874
385 1 0.847171 0.228714 0.5 -0.3181 0.609144
386 1 0.805386 0.213027 0.5 -0.509769 0.699329
387 1 0.573892 0.322375 0.5 -0.800725 -0.569204
388 1 0.642574 0.227034 0.5 0.886594 -0.144114
389 1 0.27121 0.161288 0.5 0.06985 -0.115955
390 1 0.755268 0.594211 0.5 0.104094 -0.469651
391 1 0.517824 0.601929 0.5 -0.0725443 0.169066
392 1 0.637374 0.650281 0.5 0.54926 0.605024
393 1 0.967374 0.595963 0.5 0.479169 0.738502
394 1 0.000783124 0.851692 0.5 0.253231 -0.236551
395 1 0.5112 0.636187 0.5 -0.106999 -0.245651
396 1 0.0199601 0.193428 0.5 -0.531478 -0.0108695
397 1 0.302496 0.401352 0.5 0.745019 -0.0254071
398 1 0.651751 0.255428 0.5 0.267658 -0.803448
399 1 0.45641 0.271323 0.5 -0.820171 -0.194594
400 1 0.432136 0.282539 0.5 0.238729 0.0328951
401 1 0.0857062 0.979446 0.5 -0.0415196 -0.396945
402 1 0.831231 0.552956 0.5 -0.0818605 0.765066
403 1 0.523947 0.093232 0.5 0.243579 0.825383
404 1 0.0419904 0.326415 0.5 0.821315 -0.134367
405 1 0.691905 0.287028 0.5 0.472711 -0.225229
406 1 0.736997 0.322891 0.5 -0.103303 -0.867608
407 1 0.656452 0.572899 0.5 -0.262698 -0.0319307
408 1 0.695122 0.246468 0.5 0.363655 -0.722259
409 1 0.903117 0.0601415 0.5 -0.457467 0.212472
410 1 0.398092 0.846234 0.5 0.527494 0.147426
411 1 0.854748 0.16547 0.5 -0.391132 0.411724
412 1 0.469322 0.35936 0.5 0.0995357 -0.218277
413 1 0.40753 0.193081 0.5 0.769134 -0.0922687
414 1 0.702476 0.969756 0.5 -0.500393 -0.328453
415 1 0.780006 0.130108 0.5 -0.339617 0.0750872
416 1 0.909042 0.216725 0.5 -0.319042 0.472779
417 1 0.28915 0.937098 0.5 0.280042 -0.00228778
418 1 0.327218 0.62361 0.5 0.24928 -0.390539
419 1 0.971202 0.363963 0.5 -0.643652 0.0280551
420 1 0.0205531 0.398085 0.5 0.218374 0.74102
421 1 0.780217 0.222413 0.5 -0.421175 0.674346
422 1 0.403384 0.568499 0.5 0.736216 0.355368
423 1 0.151123 0.678704 0.5 0.711581 -0.170335
424 1 0.898785 0.134682 0.5 -0.469383 0.78245
425 1 0.779738 0.69151 0.5 0.389961 0.817053
426 1 0.166261 0.702877 0.5 -0.747636 -0.383142
427 1 0.865082 0.967304 0.5 -0.244386 0.00251533
428 1 0.90416 0.24253 0.5 -0.518018 0.840288
429 1 0.289865 0.0486573 0.5 0.790252 0.532401
430 1 0.322992 0.795902 0.5 0.734634 -0.283217
431 1 0.360913 0.227759 0.5 0.791602 0.456692
432 1 0.128758 0.0608484 0.5 -0.889728 0.428555
433 1 0.0328911 0.10095 0.5 -0.729283 -0.164635
434 1 0.298858 0.0848697 0.5 0.339132 0.168465
435 1 0.924624 0.0562672 0.5 -0.0515352 0.125867
436 1 0.449208 0.99773 0.5 0.706726 0.352449
437 1 0.263069 0.343621 0.5 0.874689 0.282762
438 1 0.314549 0.520988 0.5 0.841365 -0.0402129
439 1 0.625953 0.946767 0.5 -0.0322657 -0.945156
440 1 0.234046 0.306181 0.5 0.720817 0.515621
441 1 0.358401 0.287812 0.5 0.48021 0.381164
442 1 0.797011 0.897398 0.5 -0.748478 -0.541056
443 1 0.82125 0.794522 0.5 -0.200694 0.0648529
444 1 0.905654 0.253145 0.5 -0.378529 0.690839
445 1 0.264543 0.139048 0.5 0.49538 0.358531
446 1 0.301171 0.436235 0.5 0.665281 0.356058
447 1 0.347937 0.871377 0.5 0.917586 0.342078
448 1 0.509465 0.655102 0.5 -0.0182834 0.585539
449 1 0.115032 0.464923 0.5 0.573585 0.214464
450 1 0.152543 0.941403 0.5 0.51338 -0.17203
451 1 0.285027 0.141505 0.5 0.742362 0.115258
452 1 0.0659395 0.473903 0.5 0.747104 -0.304343
453 1 0.990951 0.12124 0.5 0 0
454 1 0.961289 0.904776 0.5 -0.933913 0.310508
455 1 0.812659 0.752508 0.5 0.351785 0.355252
456 1 0.690446 0.388299 0.5 0.160423 0.979489
457 1 0.547742 0.659679 0.5 0.360323 -0.607348
458 1 0.899595 0.57889 0.5 -0.147374 0.16304
459 1 0.619492 0.22043 0.5 0.0343255 0.296853
460 1 0.574732 0.213275 0.5 -0.351904 -0.911934
461 1 0.0101793 0.600905 0.5 0.133883 0.580689
462 1 0.173017 0.182393 0.5 0.6462 -0.551662
463 1 0.127381 0.15161 0.5 -0.152265 -0.0322177
464 1 0.962463 0.358959 0.5 -0.761717 0.169455
465 1 0.701751 0.391532 0.5 -0.115511 0.833396
466 1 0.698542 0.6499 0.5 -0.298599 -0.713131
467 1 0.88963 0.16024 0.5 -0.0327116 0.328826
468 1 0.279737 0.186112 0.5 0.177108 -0.0414982
469 1 0.426662 0.492779 0.5 0.119723 -0.379775
470 1 0.502735 0.872531 0.5 0.825181 0.455158
471 1 0.0524111 0.111794 0.5 -0.544865 0.318389
472 1 0.778477 0.270641 0.5 -0.659996 0.717279
473 1 0.230657 0.240628 0.5 0.341888 0.372327
474 1 0.67624 0.327592 0.5 -0.0170615 0.183002
475 1 0.236742 0.416791 0.5 0.825323 0.25194
476 1 0.591971 0.682626 0.5 0.0724957 -0.0823652
477 1 0.348096 0.450441 0.5 0.52233 0.128725
478 1 0.28577 0.726723 0.5 0.566383 -0.694958
479 1 0.800963 0.460574 0.5 0.206751 0.314135
480 1 0.0902581 0.421853 0.5 -0.00701268 0.422256
481 1 0.144352 0.0415831 0.5 0.486161 -0.406389
482 1 0.797777 0.407858 0.5 -0.0014989 -0.611527
483 1 0.676297 0.141059 0.5 0.420399 -0.22832
484 1 0.141756 0.145717 0.5 0.0580858 0.61244
485 1 0.0792193 0.350884 0.5 0.425151 -0.718212
486 1 0.759993 0.154115 0.5 -0.573203 0.428928
487 1 0.262648 0.482798 0.5 0.660393 0.570846
488 1 0.434533 0.968943 0.5 0.701998 0.383413
489 1 0.185904 0.00330515 0.5 0.864222 -0.435096
490 1 0.839131 0.984834 0.5 -0.539739 0.143483
491 1 0.771795 0.541595 0.5 -0.089392 0.275053
492 1 0.951641 0.389961 0.5 -0.0119282 0.665351
493 1 0.724715 0.109071 0.5 -0.509534 0.72847
494 1 0.225726 0.849542 0.5 -0.19941 0.760762
495 1 0.51406 0.359167 0.5 -0.741243 -0.410434
496 1 0.996753 0.223241 0.5 0.192521 0.464195
497 1 0.386959 0.302587 0.5 0.426686 0.206873
498 1 0.810128 0.922612 0.5 -0.326662 -0.838067
499 1 0.653298 0.207243 0.5 0.728984 0.312405
500 1 0.361133 0.332447 0.5 0.687004 0.413024
501 1 0.0850631 0.195604 0.5 -0.717401 0.218805
502 1 0.158256 0.40419 0.5 0.537299 -0.518784
503 1 0.802567 0.915489 0.5 -0.192417 -0.91977
504 1 0.764377 0.110003 0.5 0.514572 0.0279825
505 1 0.797341 0.277298 0.5 -0.788878 0.436499
506 1 0.295026 0.46474 0.5 0.918241 -0.354053
507 1 0.930315 0.383702 0.5 -0.746138 0.521214
508 1 0.389514 0.222383 0.5 -0.339895 0.183332
509 1 0.8564 0.962403 0.5 -0.887362 0.138264
510 1 0.823629 0.771533 0.5 -0.3934 0.164843
511 1 0.921209 0.0474482 0.5 0.342252 0.582007
512 1 0.97873 0.469145 0.5 -0.246449 0.528318
513 1 0.64087 0.197712 0.5 0.406865 -0.293026
514 1 0.126157 0.591301 0.5 0.777398 0.56966
515 1 0.789481 0.694015 0.5 0.549882 0.638871
516 1 0.758895 0.479057 0.5 -0.170928 0.658061
517 1 0.767416 0.0511244 0.5 0.570435 0.323314
518 1 0.442977 0.388186 0.5 0.983967 0.0487958
519 1 0.170171 0.268164 0.5 0.518724 0.515897
520 1 0.135651 0.855284 0.5 0.632318 0.0729636
521 1 0.0808769 0.731149 0.5 0.16672 0.38292
522 1 0.16562 0.94615 0.5 0.129917 0.616152
523 1 0.649176 0.596391 0.5 -0.012254 -0.523591
524 1 0.144026 0.107307 0.5 -0.454977 0.696985
525 1 0.533729 0.226689 0.5 -0.214594 -0.837801
526 1 0.0299881 0.25912 0.5 0.577395 0.737866
527 1 0.147809 0.207799 0.5 0.0357645 0.277239
528 1 0.650401 0.196068 0.5 -0.0907748 -0.0648222
529 1 0.889169 0.141369 0.5 -0.466509 0.31251
530 1 0.889926 0.266474 0.5 -0.0691671 0.768127
531 1 0.125999 0.232525 0.5 0.118088 0.891976
532 1 0.818368 0.714574 0.5 0.407042 0.279663
533 1 0.764239 0.326106 0.5 -0.230598 -0.166169
534 1 0.806818 0.975593 0.5 -0.332811 -0.346873
535 1 0.480889 0.869954 0.5 0.915255 0.336126
536 1 0.105255 0.462606 0.5 0.0049543 -0.0871112
537 1 0.619736 0.835442 0.5 0.129657 0.128315
538 1 0.276296 0.30642 0.5 0.757883 0.145673
539 1 0.290401 0.215937 0.5 0.848583 0.37665
540 1 0.771663 0.511231 0.5 0.649813 0.0982296
541 1 0.433601 0.407925 0.5 0.763809 -0.515525
542 1 0.340662 0.75828 0.5 0.714345 -0.259591
543 1 0.962512 0.207861 0.5 -0.402218 0.882877
544 1 0.319873 0.0512527 0.5 0.848515 0.296889
545 1 0.654437 0.245579 0.5 0.212655 -0.901094
546 1 0.227757 0.0206632 0.5 0.636142 0.302588
547 1 0.571759 0.601682 0.5 0.209701 -0.484955
548 1 0.0480605 0.662095 0.5 -0.687277 0.622336
549 1 0.931848 0.186023 0.5 -0.660665 0.509271
550 1 0.576228 0.706013 0.5 0.798974 -0.0458619
551 1 0.667373 0.00671162 0.5 0.900051 -0.163244
552 1 0.142382 0.352716 0.5 0.48685 0.37929
553 1 0.511719 0.410952 0.5 -0.857523 -0.031128
554 1 0.180634 0.869015 0.5 0.912136 -0.366005
555 1 0.819148 0.640791 0.5 -0.334195 -0.000183946
556 1 0.394958 0.993466 0.5 0.487514 0.213511
557 1 0.000414103 0.255648 0.5 0.4305 0.419028
558 1 0.932882 0.402758 0.5 -0.619616 0.505243
559 1 0.524886 0.548349 0.5 0 0
560 1 0.625713 0.854832 0.5 -0.1415 0.0447789
561 1 0.878422 0.471154 0.5 -0.60346 0.51306
562 1 0.806982 0.281564 0.5 -0.867756 0.28669
563 1 0.0605986 0.262227 0.5 0.859399 0.210133
564 1 0.952066 0.193618 0.5 -0.877912 0.35004
565 1 0.868049 0.349457 0.5 -0.578024 0.72066
566 1 0.727805 0.551969 0.5 -0.271065 0.675356
567 1 0.36647 0.189972 0.5 -0.0505795 -0.290272
568 1 0.477634 0.0963338 0.5 0.698222 0.330912
569 1 0.813303 0.0771718 0.5 0.238298 0.13291
570 1 0.0757793 0.360042 0.5 0.0716243 -0.711799
571 1 0.241727 0.0542009 0.5 0.658856 0.43375
572 1 0.598702 0.918232 0.5 0.320642 0.715459
573 1 0.644164 0.276273 0.5 -0.298184 -0.767804
574 1 0.678062 0.337453 0.5 0.155591 -0.08044
575 1 0.397365 0.08283 0.5 0.663504 -0.215165
576 1 0.670059 0.510849 0.5 0.476839 -0.499093
577 1 0.876492 0.332914 0.5 -0.784076 0.460761
578 1 0.437482 0.665478 0.5 0.675476 0.472462
579 1 0.299933 0.130758 0.5 0.761603 -0.17027
580 1 0.964707 0.976892 0.5 -0.226433 0.129816
581 1 0.302546 0.382324 0.5 0.859152 -0.330489
582 1 0.00213169 0.36578 0.5 -0.713609 -0.524487
583 1 0.0314241 0.964138 0.5 0.611984 0.237921
584 1 0.960678 0.235482 0.5 -0.0849781 0.364435
585 1 0.714863 0.442766 0.5 -0.44489 0.806246
586 1 0.591804 0.510592 0.5 0.46212 -0.221871
587 1 0.999119 0.51852 0.5 0.37918 0.721342
588 1 0.999473 0.206593 0.5 -0.358508 0.455421
589 1 0.507806 0.264814 0.5 -0.150246 -0.722398
590 1 0.365463 0.37988 0.5 0.207797 0.310389
591 1 0.611053 0.819907 0.5 0.0631512 0.192366
592 1 0.514854 0.378724 0.5 -0.631814 -0.337026
593 1 0.929725 0.0869091 0.5 -0.246086 0.473813
594 1 0.565277 0.550369 0.5 0.164884 -0.846547
595 1 0.437645 0.290743 0.5 0.230792 -0.487433
596 1 0.416742 0.357328 0.5 0.655149 -0.256513
597 1 0.938603 0.271892 0.5 0.160657 -0.696209
598 1 0.314465 0.997523 0.5 0.828492 0.0739054
599 1 0.737259 0.0543377 0.5 0.0378927 -0.273085
600 1 0.916079 0.737261 0.5 0.207533 -0.933115
601 1 0.765382 0.862708 0.5 -0.422194 -0.86235
602 1 0.609178 0.269332 0.5 -0.623618 -0.637126
603 1 0.0186665 0.183536 0.5 -0.467211 0.534862
604 1 0.499123 0.179035 0.5 -0.484647 0.405065
605 1 0.41494 0.0918271 0.5 -0.0400977 0.764642
606 1 0.814764 0.414702 0.5 0.00106928 0.166886
607 1 0.871528 0.27359 0.5 0.409476 -0.542627
608 1 0.529859 0.0149724 0.5 0.26061 -0.0814931
609 1 0.576036 0.933374 0.5 0.878277 0.364394
610 1 0.12002 0.308414 0.5 0.32777 0.701477
611 1 0.884604 0.604435 0.5 0.174124 0.785706
612 1 0.398317 0.349416 0.5 0.453134 -0.432689
613 1 0.893867 0.238949 0.5 -0.324633 0.937598
614 1 0.829479 0.402293 0.5 0.220778 0.901738
615 1 0.0807182 0.576848 0.5 0.397552 0.610893
616 1 0.263399 0.578771 0.5 0.964951 0.122989
617 1 0.492124 0.430903 0.5 -0.696236 -0.404748
618 1 0.935209 0.482276 0.5 0.0629427 0.885164
619 1 0.0251095 0.154404 0.5 -0.538357 0.798558
620 1 0.66728 0.233925 0.5 0.804757 -0.153354
621 1 0.8533 0.12176 0.5 -0.309936 0.158181
622 1 0.959702 0.371703 0.5 0.374577 -0.295334
623 1 0.221688 0.339951 0.5 0.782368 0.336183
624 1 0.175806 0.279542 0.5 0.480977 -0.465382
625 1 0.562347 0.347072 0.5 -0.763258 -0.388373
626 1 0.136331 0.234656 0.5 0.650279 0.598255
627 1 0.191382 0.0119216 0.5 0.798744 -0.0913594
628 1 0.459904 0.136483 0.5 -0.726542 -0.429307
629 1 0.24721 0.147924 0.5 0.972375 -0.175826
630 1 0.373973 0.475954 0.5 0.526345 0.562347
631 1 0.0274311 0.00256245 0.5 -0.805185 0.101848
632 1 0.515951 0.968201 0.5 0.475098 0.425325
633 1 0.248168 0.0472036 0.5 0.696561 0.385149
634 1 0.0325394 0.135018 0.5 -0.825042 0.350374
635 1 0.711598 0.433059 0.5 -0.407479 0.597615
636 1 0.426079 0.308341 0.5 0.761541 -0.157417
637 1 0.353778 0.164969 0.5 0.129823 0.309856