ITEM: TIMESTEP
0
ITEM: NUMBER OF ATOMS
9945
ITEM: BOX BOUNDS pp pp pp
-5.8359999999999999e+01 5.8359999999999999e+01
-5.8359999999999999e+01 5.8359999999999999e+01
-5.0000000000000000e-01 5.0000000000000000e-01
ITEM: ATOMS id type xs ys zs c_002[1] c_002[2]
1 1 0.541721 0.419871 0.5 0.0249518 0.610537
2 1 0.982482 0.44025 0.5 0.661551 -0.467291
3 1 0.753244 0.171761 0.5 0.915344 0.11148
4 1 0.656781 0.738248 0.5 -0.854559 -0.303785
5 1 0.763777 0.942951 0.5 -0.772066 0.0215232
6 1 0.697863 0.429619 0.5 0.607248 -0.643608
7 1 0.377063 0.525106 0.5 0.00794942 -0.468877
8 1 0.863845 0.878718 0.5 -0.466221 0.786858
9 1 0.768546 0.788003 0.5 0.0194124 0.96592
10 1 0.583632 0.714734 0.5 -0.314159 0.888535
11 1 0.0942955 0.207782 0.5 0.700299 -0.232203
12 1 0.47211 0.419872 0.5 0.712857 -0.139903
13 1 0.881225 0.528272 0.5 -0.409239 0.182416
14 1 0.485124 0.376041 0.5 -0.908506 -0.175721
15 1 0.597344 0.676006 0.5 -0.2413 -0.602625
16 1 0.74505 0.682231 0.5 -0.415428 0.350273
17 1 0.593035 0.334879 0.5 0.684642 -0.530265
18 1 0.568028 0.328886 0.5 0.623202 -0.556296
19 1 0.786766 0.541604 0.5 -0.0571364 0.394961
20 1 0.362514 0.713388 0.5 0.478676 -0.789974
21 1 0.943626 0.923048 0.5 0.293802 -0.182982
22 1 0.485376 0.917759 0.5 0.450825 -0.814594
23 1 0.112724 0.326184 0.5 -0.701918 -0.600395
24 1 0.713159 0.92222 0.5 0.450178 0.693672
25 1 0.865811 0.617331 0.5 0.132211 -0.431328
26 1 0.170489 0.829833 0.5 0.209719 -0.766272
27 1 0.0594655 0.379454 0.5 -0.223528 -0.826537
28 1 0.708631 0.652374 0.5 0.611409 -0.0397829
29 1 0.691421 0.537917 0.5 0.137482 -0.511507
30 1 0.263683 0.0982919 0.5 -0.0477289 0.544414
31 1 0.839522 0.871624 0.5 -0.053018 0.189099
32 1 0.0481677 0.896398 0.5 0.15364 -0.513238
33 1 0.0368311 0.384616 0.5 -0.350031 -0.741679
34 1 0.403997 0.170041 0.5 -0.652258 0.216283
35 1 0.730035 0.684032 0.5 -0.110095 0.000453671
36 1 0.0964692 0.680981 0.5 0.222064 0.594115
37 1 0.960733 0.39961 0.5 0.524476 -0.522739
38 1 0.0463079 0.416351 0.5 -0.355911 -0.133996
39 1 0.674199 0.110785 0.5 0.213563 0.845403
40 1 0.524409 0.659378 0.5 -0.0522981 0.456284
41 1 0.561858 0.761675 0.5 -0.357829 -0.774053
42 1 0.642755 0.0303705 0.5 -0.582087 -0.418939
43 1 0.989035 0.656967 0.5 0.160769 0.446418
44 1 0.764566 0.670146 0.5 -0.775732 0.462651
45 1 0.431328 0.343064 0.5 -0.83768 -0.401057
46 1 0.566015 0.547774 0.5 0.592025 0.444054
47 1 0.649368 0.722975 0.5 -0.250666 0.236197
48 1 0.881546 0.0667349 0.5 0.866302 0.297572
49 1 0.770645 0.227535 0.5 0.501557 0.248555
50 1 0.730233 0.149777 0.5 0.74822 0.0692728
51 1 0.0604933 0.949632 0.5 0.386099 -0.60012
52 1 0.811769 0.289521 0.5 0.477978 -0.438016
53 1 0.15574 0.492442 0.5 -0.339028 0.309938
54 1 0.129575 0.60996 0.5 -0.0876271 0.628519
55 1 0.374272 0.253288 0.5 0.269738 -0.401343
56 1 0.488803 0.978232 0.5 -0.110631 -0.270399
57 1 0.0494696 0.867558 0.5 0.535543 -0.490764
58 1 0.015258 0.0120221 0.5 0.125432 -0.277234
59 1 0.565106 0.989043 0.5 0.154082 -0.804004
60 1 0.820246 0.0331381 0.5 0.791003 -0.106784
61 1 0.904041 0.679069 0.5 0.057855 0.482969
62 1 0.919497 0.961651 0.5 -0.211729 0.559496
63 1 0.825665 0.278832 0.5 0.668922 -0.0343678
64 1 0.0995144 0.814305 0.5 0.686768 -0.656835
65 1 0.145954 0.619149 0.5 0.09885 -0.0345291
66 1 0.560869 0.655564 0.5 0.985402 0.0180043
67 1 0.543819 0.897602 0.5 0.16268 0.122828
68 1 0.262574 0.819584 0.5 0.704369 0.0677175
69 1 0.777431 0.716735 0.5 -0.0440173 0.411933
70 1 0.186699 0.086678 0.5 0.529476 -0.603205
71 1 0.544462 0.099096 0.5 0.630917 -0.346143
72 1 0.111638 0.642435 0.5 0.787358 0.400441
73 1 0.241457 0.0785878 0.5 0.0188906 0.608166
74 1 0.123841 0.277044 0.5 -0.302247 -0.245126
75 1 0.591364 0.428743 0.5 0.80816 0.415306
76 1 0.762498 0.350485 0.5 0.517519 -0.523233
77 1 0.225526 0.732376 0.5 -0.0219066 -0.791366
78 1 0.249144 0.445704 0.5 0.200199 -0.530908
79 1 0.117902 0.505083 0.5 -0.629677 0.0682854
80 1 0.787002 0.145885 0.5 0.762033 -0.272775
81 1 0.815235 0.427134 0.5 -0.314863 -0.328657
82 1 0.987644 0.311564 0.5 0.883236 0.119328
83 1 0.635404 0.766233 0.5 -0.0525193 0.744939
84 1 0.689218 0.653316 0.5 0.455931 -0.182044
85 1 0.964716 0.94116 0.5 0.413571 -0.409216
86 1 0.418739 0.733811 0.5 -0.0754352 0.374099
87 1 0.6062 0.594168 0.5 -0.695699 -0.414946
88 1 0.793278 0.228461 0.5 0.789136 -0.378311
89 1 0.635984 0.00742688 0.5 -0.159087 -0.2897
90 1 0.114164 0.744135 0.5 0.78981 -0.203618
91 1 0.723577 0.111762 0.5 -0.178961 0.508494
92 1 0.481276 0.289579 0.5 -0.800938 -0.166404
93 1 0.822142 0.840998 0.5 -0.381183 -0.121219
94 1 0.229009 0.618992 0.5 0.11594 -0.861167
95 1 0.58654 0.0864608 0.5 -0.208637 -0.0296734
96 1 0.691188 0.0969986 0.5 -0.206745 0.70891
97 1 0.382029 0.922974 0.5 -0.0336805 -0.788204
98 1 0.192328 0.930521 0.5 0.11407 0.281818
99 1 0.376683 0.174232 0.5 -0.154678 0.769849
100 1 0.993572 0.679613 0.5 0.253343 0.0224581
101 1 0.721375 0.783675 0.5 -0.180055 -0.0420686
102 1 0.336769 0.674437 0.5 0.129357 -0.669479
103 1 0.540184 0.696587 0.5 0.27984 0.668825
104 1 0.375167 0.370947 0.5 -0.869587 0.105991
105 1 0.316921 0.316439 0.5 -0.0378048 -0.357397
106 1 0.273354 0.100138 0.5 0.298342 0.950376
107 1 0.934977 0.636442 0.5 -0.115648 0.029422
108 1 0.284859 0.0577685 0.5 -0.290705 -0.291585
109 1 0.503302 0.959389 0.5 0.838534 0.434451
110 1 0.914316 0.127354 0.5 0.118574 0.109467
111 1 0.714903 0.83556 0.5 0.440671 0.17832
112 1 0.0120917 0.443456 0.5 -0.828324 0.333579
113 1 0.648496 0.31983 0.5 -0.344472 -0.293807
114 1 0.825666 0.878381 0.5 -0.231409 0.184194
115 1 0.232295 0.0475399 0.5 0.277452 0.669576
116 1 0.492492 0.359649 0.5 -0.540485 0.101595
117 1 0.556294 0.358705 0.5 0.434097 -0.63645
118 1 0.986675 0.0239318 0.5 -0.306215 -0.478457
119 1 0.993218 0.0602987 0.5 0.555988 -0.60986
120 1 0.406428 0.82715 0.5 -0.678246 -0.371876
121 1 0.598338 0.0018774 0.5 0.26265 -0.876893
122 1 0.0655637 0.0418139 0.5 0.399087 0.0923137
123 1 0.152838 0.825495 0.5 0.328852 -0.485845
124 1 0.197463 0.405115 0.5 0.380592 0.536172
125 1 0.74831 0.125033 0.5 0.847614 0.498088
126 1 0.76064 0.889631 0.5 -0.703892 0.182377
127 1 0.387516 0.523906 0.5 0.289123 -0.687592
128 1 0.598073 0.446843 0.5 -0.654442 0.27869
129 1 0.205295 0.321726 0.5 -0.537436 -0.448955
130 1 0.871792 0.0856081 0.5 0.813027 -0.505542
131 1 0.65602 0.690309 0.5 0.691436 -0.502124
132 1 0.658412 0.225696 0.5 -0.925015 -0.134076
133 1 0.640923 0.227829 0.5 -0.544951 0.0304647
134 1 0.102539 0.506685 0.5 -0.688231 -0.00366365
135 1 0.231603 0.857155 0.5 0.518085 -0.346079
136 1 0.497901 0.676794 0.5 -0.427742 0.0971636
137 1 0.673076 0.728587 0.5 0.0610096 0.551608
138 1 0.576372 0.308939 0.5 0.636183 -0.0923481
139 1 0.989914 0.181354 0.5 0.734202 0.404992
140 1 0.299384 0.395916 0.5 -0.839725 -0.292051
141 1 0.324931 0.95148 0.5 -0.347586 0.680411
142 1 0.886394 0.740116 0.5 0.254128 0.762183
143 1 0.575567 0.547179 0.5 0.462084 -0.315624
144 1 0.0232063 0.0669834 0.5 0.275066 -0.182107
145 1 0.91351 0.0623542 0.5 0.471636 -0.63082
146 1 0.800466 0.382896 0.5 0.248834 -0.491203
147 1 0.642767 0.455442 0.5 0.181906 0.478488
148 1 0.16556 0.530338 0.5 0.175084 -0.575983
149 1 0.733252 0.796846 0.5 -0.233585 0.762925
150 1 0.49321 0.00623158 0.5 -0.715703 0.315002
151 1 0.768961 0.0451264 0.5 -0.0545252 0.567208
152 1 0.83711 0.0435525 0.5 0.529666 -0.193213
153 1 0.348599 0.777792 0.5 -0.141808 -0.574039
154 1 0.664259 0.19366 0.5 0.570693 0.753701
155 1 0.198014 0.156155 0.5 -0.204769 -0.293457
156 1 0.0457301 0.381387 0.5 0.0183437 -0.270065
157 1 0.890436 0.452524 0.5 -0.319015 -0.836902
158 1 0.819465 0.253483 0.5 0.855115 -0.104167
159 1 0.0906539 0.598883 0.5 -0.354375 0.746083
160 1 0.26159 0.800332 0.5 -0.391043 -0.669315
161 1 0.783251 0.459604 0.5 0.224085 -0.926399
162 1 0.749343 0.447883 0.5 0.48474 -0.716952
163 1 0.93754 0.74557 0.5 -0.751705 -0.440003
164 1 0.104853 0.912954 0.5 -0.608474 -0.0992935
165 1 0.478909 0.231986 0.5 -0.761151 0.219921
166 1 0.73657 0.315369 0.5 0.676791 -0.644491
167 1 0.618974 0.398523 0.5 0.0674862 -0.0686036
168 1 0.910163 0.405154 0.5 0.73191 -0.510419
169 1 0.376006 0.115176 0.5 0.104876 -0.0244188
170 1 0.992105 0.0439645 0.5 0.512301 -0.61778
171 1 0.713178 0.0258559 0.5 0.116026 0.690378
172 1 0.242817 0.666865 0.5 0.251059 -0.449601
173 1 0.874377 0.623024 0.5 0.0556082 -0.503176
174 1 0.53639 0.586422 0.5 0.708471 -0.0319028
175 1 0.941011 0.19623 0.5 0.380223 -0.644868
176 1 0.11941 0.547338 0.5 -0.547697 0.366916
177 1 0.593091 0.718014 0.5 0.030965 0.939821
178 1 0.721273 0.621238 0.5 -0.536283 -0.312628
179 1 0.689032 0.584001 0.5 -0.332814 0.0207693
180 1 0.250029 0.347892 0.5 -0.865036 -0.0490574
181 1 0.916858 0.386819 0.5 0.751777 -0.522948
182 1 0.0326921 0.946319 0.5 0.373126 -0.498623
183 1 0.781881 0.828181 0.5 0.730604 0.564097
184 1 0.991206 0.529187 0.5 0.123002 -0.923286
185 1 0.507473 0.624156 0.5 -0.537027 -0.0522837
186 1 0.170445 0.663781 0.5 0.575617 -0.694946
187 1 0.24954 0.35893 0.5 -0.973422 0.122499
188 1 0.831838 0.979083 0.5 -0.401916 0.0988266
189 1 0.538465 0.156283 0.5 -0.696702 -0.317112
190 1 0.886054 0.537737 0.5 -0.182295 0.723655
191 1 0.258416 0.0230409 0.5 -0.783984 0.403645
192 1 0.495584 0.0515367 0.5 -0.240233 0.218307
193 1 0.076407 0.770173 0.5 0.329091 -0.594947
194 1 0.213208 0.204522 0.5 -0.12318 0.424705
195 1 0.892776 0.901005 0.5 -0.0667052 0.304596
196 1 0.792184 0.777587 0.5 0.249612 -0.466147
197 1 0.0128392 0.597285 0.5 -0.86509 0.472987
198 1 0.979587 0.792674 0.5 -0.572094 0.766669
199 1 0.350545 0.33111 0.5 -0.345941 -0.108956
200 1 0.464571 0.127955 0.5 -0.680723 -0.0288128
201 1 0.694449 0.95907 0.5 0.0169037 0.462595
202 1 0.107895 0.309519 0.5 0.0937142 -0.735355
203 1 0.269448 0.25247 0.5 0.415556 0.149503
204 1 0.849777 0.501362 0.5 -0.2165 -0.868529
205 1 0.446059 0.285031 0.5 -0.05356 -0.615915
206 1 0.10033 0.0307077 0.5 0.250446 -0.815606
207 1 0.201991 0.607126 0.5 -0.447345 -0.417178
208 1 0.299504 0.0897204 0.5 0.0219665 0.961685
209 1 0.248014 0.864834 0.5 0.686725 -0.0906605
210 1 0.772862 0.939067 0.5 -0.608692 0.19198
211 1 0.575041 0.101566 0.5 0.458046 -0.194796
212 1 0.492836 0.896848 0.5 0.519105 -0.57856
213 1 0.374844 0.849037 0.5 -0.527147 -0.680706
214 1 0.0236023 0.103434 0.5 0.723203 -0.567788
215 1 0.830795 0.40528 0.5 0.550753 -0.723799
216 1 0.578272 0.623403 0.5 -0.0325693 0.546523
217 1 0.855137 0.937096 0.5 0.313025 0.466082
218 1 0.978015 0.852417 0.5 0.182838 -0.698568
219 1 0.150209 0.223217 0.5 0.806502 -0.402765
220 1 0.201175 0.996731 0.5 -0.293048 0.427386
221 1 0.643789 0.137135 0.5 0.157473 0.708499
222 1 0.209333 0.766329 0.5 -0.683432 -0.466492
223 1 0.312832 0.26277 0.5 -0.155888 -0.450347
224 1 0.945438 0.187853 0.5 0.719327 -0.587916
225 1 0.103015 0.0491063 0.5 0.861669 -0.336319
226 1 0.0629263 0.418587 0.5 -0.619735 -0.0795941
227 1 0.750623 0.228388 0.5 0.119052 -0.953782
228 1 0.249588 0.368969 0.5 -0.909034 -0.0174436
229 1 0.688628 0.778677 0.5 0.406039 0.0927073
230 1 0.397202 0.929095 0.5 -0.0467398 -0.416732
231 1 0.932797 0.272529 0.5 0.259666 -0.947477
232 1 0.198901 0.0820347 0.5 -0.00262371 0.421572
233 1 0.161408 0.200883 0.5 0.554474 -0.150695
234 1 0.657942 0.889793 0.5 0.287821 -0.507761
235 1 0.893466 0.48737 0.5 -0.281733 -0.532784
236 1 0.412379 0.217268 0.5 -0.81259 0.316129
237 1 0.203791 0.830121 0.5 0.819205 -0.289105
238 1 0.400183 0.746294 0.5 -0.319614 -0.367279
239 1 0.411267 0.714824 0.5 0.546508 -0.780827
240 1 0.720483 0.717274 0.5 -0.330974 -0.62076
241 1 0.100999 0.216473 0.5 0.759506 -0.335845
242 1 0.347634 0.91505 0.5 -0.249157 -0.712607
243 1 0.840088 0.414145 0.5 0.173776 -0.227153
244 1 0.212351 0.0308123 0.5 -0.484642 -0.12235
245 1 0.00824119 0.398438 0.5 -0.243418 0.212431
246 1 0.342719 0.85131 0.5 0.371215 0.186817
247 1 0.935594 0.493951 0.5 0.396649 -0.912885
248 1 0.346838 0.051181 0.5 -0.0794659 -0.386643
249 1 0.660829 0.681953 0.5 0.361741 -0.159584
250 1 0.394556 0.228703 0.5 -0.911862 -0.286064
251 1 0.820509 0.75519 0.5 0.346126 -0.493286
252 1 0.802586 0.873311 0.5 0.429916 -0.198484
253 1 0.955962 0.887806 0.5 0.054929 0.462044
254 1 0.509474 0.266629 0.5 0.135318 -0.36327
255 1 0.924805 0.105484 0.5 0.578195 -0.692475
256 1 0.270454 0.117311 0.5 0.0515358 0.756365
257 1 0.190875 0.721489 0.5 0.357244 -0.880606
258 1 0.975052 0.98763 0.5 -0.430474 -0.650134
259 1 0.317892 0.707613 0.5 -0.240539 -0.93219
260 1 0.52261 0.115479 0.5 0.173322 0.868858
261 1 0.646707 0.353582 0.5 0.693007 -0.265896
262 1 0.76602 0.0160007 0.5 -0.848628 -0.0700922
263 1 0.692033 0.627446 0.5 0.330246 -0.863624
264 1 0.484916 0.366292 0.5 -0.812351 0.447107
265 1 0.569356 0.444346 0.5 -0.0633889 0.669921
266 1 0.677026 0.170393 0.5 -0.0841888 0.679997
267 1 0.89753 0.849676 0.5 -0.473989 -0.17339
268 1 0.908255 0.330968 0.5 0.669548 -0.508828
269 1 0.616378 0.609699 0.5 -0.438511 0.0651105
270 1 0.889527 0.696297 0.5 0.123828 0.444756
271 1 0.528356 0.817693 0.5 0.157162 -0.501805
272 1 0.695698 0.927734 0.5 -0.0102777 0.360281
273 1 0.764859 0.410417 0.5 0.408118 -0.780187
274 1 0.114151 0.456561 0.5 -0.794438 -0.258778
275 1 0.451057 0.272291 0.5 0.572831 -0.422133
276 1 0.735785 0.266795 0.5 0.298637 -0.811311
277 1 0.123604 0.287342 0.5 -0.624358 -0.52098
278 1 0.519963 0.810245 0.5 0.118068 -0.823639
279 1 0.103091 0.763447 0.5 0.484508 -0.00617066
280 1 0.989496 0.95391 0.5 0.445855 -0.403067
281 1 0.901522 0.231627 0.5 0.125585 -0.545518
282 1 0.77029 0.797387 0.5 0.0418054 0.844183
283 1 0.888292 0.151169 0.5 0.266085 -0.610894
284 1 0.524199 0.587488 0.5 0.612802 -0.483147
285 1 0.44921 0.164797 0.5 -0.788788 -0.168676
286 1 0.531366 0.403068 0.5 -0.151383 -0.72683
287 1 0.127429 0.560848 0.5 -0.0689052 0.137876
288 1 0.537229 0.814493 0.5 0.159195 -0.849921
289 1 0.183783 0.626767 0.5 -0.512054 -0.335464
290 1 0.56666 0.609726 0.5 -0.520361 0.300744
291 1 0.979921 0.723634 0.5 0.371103 0.650413
292 1 0.47032 0.314743 0.5 -0.849222 -0.328312
293 1 0.260454 0.313413 0.5 0.267201 0.159847
294 1 0.555155 0.644988 0.5 0.210769 0.0720553
295 1 0.503179 0.355255 0.5 -0.534429 -0.625075
296 1 0.18231 0.687785 0.5 -0.0690446 -0.602089
297 1 0.22952 0.0766746 0.5 0.382299 0.801749
298 1 0.519497 0.959484 0.5 -0.370933 -0.163187
299 1 0.875806 0.24308 0.5 0.832526 -0.0770348
300 1 0.809438 0.362877 0.5 0.388524 -0.70196
301 1 0.284274 0.567425 0.5 -0.114401 -0.76044
302 1 0.760048 0.225682 0.5 0.38737 -0.172139
303 1 0.832195 0.288459 0.5 0.611306 0.409482
304 1 0.475135 0.717498 0.5 0.0154441 0.148049
305 1 0.273181 0.160785 0.5 -0.922005 0.352678
306 1 0.667701 0.149714 0.5 0.302562 0.788587
307 1 0.929046 0.459606 0.5 -0.351371 -0.903478
308 1 0.515758 0.819276 0.5 0.283351 -0.810877
309 1 0.236093 0.484795 0.5 0.121867 -0.291932
310 1 0.0289911 0.148102 0.5 0.108838 0.546996
311 1 0.060351 0.112695 0.5 -0.137443 -0.177959
312 1 0.332165 0.331396 0.5 -0.205822 -0.545737
313 1 0.423814 0.546464 0.5 -0.322478 -0.306839
314 1 0.764466 0.322789 0.5 0.74495 -0.175218
315 1 0.292715 0.847708 0.5 0.730116 -0.435125
316 1 0.826476 0.15335 0.5 0.339682 0.0739459
317 1 0.434749 0.499287 0.5 0.237451 -0.647273
318 1 0.754962 0.411738 0.5 0.57985 -0.764612
319 1 0.0612824 0.724133 0.5 -0.126472 0.642493
320 1 0.587087 0.976127 0.5 0.191063 -0.568929
321 1 0.197681 0.211534 0.5 0.409601 0.00901926
322 1 0.508964 0.9714 0.5 -0.176201 0.131287
323 1 0.992222 0.708686 0.5 0.415765 -0.212119
324 1 0.223194 0.0862286 0.5 0.126496 0.165523
325 1 0.979058 0.601734 0.5 -0.259376 -0.227692
326 1 0.32072 0.764555 0.5 0.402943 -0.187684
327 1 0.304068 0.073326 0.5 0.147219 0.95376
328 1 0.874613 0.270265 0.5 0.679995 -0.566655
329 1 0.768508 0.311181 0.5 0.59235 -0.582787
330 1 0.0614361 0.745721 0.5 -0.183699 -0.435751
331 1 0.578598 0.796098 0.5 -0.680188 -0.111193
332 1 0.22947 0.723461 0.5 -0.00442717 -0.788489
333 1 0.561282 0.505992 0.5 0 0
334 1 0.527012 0.789733 0.5 -0.0544051 -0.60828
335 1 0.395281 0.105063 0.5 -0.447265 0.108314
336 1 0.0765108 0.956695 0.5 0.62191 -0.730647
337 1 0.97258 0.322335 0.5 0.206662 -0.739576
338 1 0.226646 0.065771 0.5 -0.0878895 0.458053
339 1 0.947701 0.898865 0.5 0.284263 0.028609
340 1 0.604154 0.556667 0.5 0.242035 -0.0211785
341 1 0.986196 0.96307 0.5 -0.130203 -0.714899
342 1 0.953989 0.127989 0.5 0.474122 -0.79777
343 1 0.969777 0.722357 0.5 0.635653 0.410251
344 1 0.769673 0.885062 0.5 -0.892448 -0.305749
345 1 0.623387 0.509632 0.5 0.425541 -0.486306
346 1 0.987173 0.92091 0.5 0.329662 -0.0279916
347 1 0.176469 0.210819 0.5 0.864251 0.144941
348 1 0.778012 0.590165 0.5 0.41647 -0.772043
349 1 0.332686 0.589273 0.5 0.0926761 -0.429345
350 1 0.25246 0.1581 0.5 -0.311186 0.0745916
351 1 0.937712 0.335705 0.5 0.47874 -0.758171
352 1 0.34612 0.492297 0.5 -0.0091618 0.582177
353 1 0.760201 0.796166 0.5 -0.0521016 0.863558
354 1 0.329085 0.147773 0.5 -0.809288 0.173173
355 1 0.647353 0.00968014 0.5 -0.402503 0.199274
356 1 0.195276 0.068358 0.5 0.12931 -0.358849
357 1 0.453267 0.122474 0.5 -0.705131 0.112363
358 1 0.0960097 0.403379 0.5 -0.639241 -0.255466
359 1 0.567341 0.257441 0.5 -0.177329 0.416394
360 1 0.103347 0.804124 0.5 0.166806 -0.780492
361 1 0.328252 0.203341 0.5 0.0932539 -0.914272
362 1 0.511922 0.00578368 0.5 -0.768107 0.130122
363 1 0.844264 0.321672 0.5 0.40742 -0.86836
364 1 0.291524 0.66732 0.5 0.144062 -0.892518
365 1 0.968024 0.767058 0.5 -0.622824 0.494565
366 1 0.74499 0.430369 0.5 0.451309 -0.650445
367 1 0.182533 0.1515 0.5 0.531176 -0.676338
368 1 0.00514344 0.0590891 0.5 0.454939 -0.797306
369 1 0.179469 0.192233 0.5 -0.370065 0.426043
370 1 0.922755 0.920534 0.5 0.185397 -0.728146
371 1 0.793022 0.136403 0.5 0.918328 0.146804
372 1 0.562195 0.105146 0.5 0.372906 -0.647481
373 1 0.106344 0.188893 0.5 0.747331 0.0672196
374 1 0.55281 0.371188 0.5 0.280426 -0.816442
375 1 0.21427 0.644703 0.5 -0.79554 -0.0322141
376 1 0.325927 0.393763 0.5 -0.693211 -0.284142
377 1 0.182976 0.640937 0.5 -0.407621 0.0657899
378 1 0.459999 0.0658288 0.5 -0.483903 0.101698
379 1 0.654215 0.109958 0.5 0.671817 0.494012
380 1 0.533623 0.662196 0.5 0.359897 0.791688
381 1 0.552356 0.317236 0.5 -0.699693 0.337381
382 1 0.673575 0.295924 0.5 0.784505 0.344379
383 1 0.509904 0.993868 0.5 -0.792619 0.21162
384 1 0.118304 0.537777 0.5 -0.65183 0.453524
385 1 0.0357991 0.313133 0.5 0.45317 -0.45633
386 1 0.76583 0.117704 0.5 0.639002 0.719312
387 1 0.417496 0.302239 0.5 -0.798268 -0.553074
388 1 0.463439 0.960006 0.5 0.964005 0.0556747
389 1 0.436585 0.654778 0.5 -0.473736 0.474438
390 1 0.579332 0.295561 0.5 -0.772199 -0.0549688
391 1 0.78046 0.892031 0.5 -0.165283 -0.346507
392 1 0.325636 0.403394 0.5 -0.754374 0.141591
393 1 0.323546 0.723232 0.5 0.241997 -0.68197
394 1 0.439527 0.180787 0.5 -0.772635 0.023103
395 1 0.576712 0.00782792 0.5 0.113209 -0.282411
396 1 0.213341 0.428554 0.5 -0.232019 0.139623
397 1 0.348741 0.903856 0.5 -0.457919 -0.491572
398 1 0.446147 0.2554 0.5 -0.313924 -0.433681
399 1 0.869351 0.679177 0.5 -0.681533 0.448129
400 1 0.488602 0.906428 0.5 0.585754 -0.700534
401 1 0.278018 0.35643 0.5 -0.712421 -0.452022
402 1 0.471119 0.59016 0.5 -0.498315 -0.282938
403 1 0.629421 0.470832 0.5 -0.172141 0.191727
404 1 0.395347 0.606367 0.5 -0.445509 0.132857
405 1 0.637214 0.352642 0.5 0.771096 0.0288582
406 1 0.0649671 0.428082 0.5 -0.649205 0.687495
407 1 0.553183 0.735598 0.5 -0.119219 0.452242
408 1 0.370046 0.313089 0.5 -0.789883 0.0511331
409 1 0.365522 0.763408 0.5 0.350449 -0.237118
410 1 0.89819 0.029073 0.5 0.397014 -0.89804
411 1 0.744242 0.387331 0.5 0.337788 -0.707864
412 1 0.870701 0.747975 0.5 -0.0706811 0.157589
413 1 0.512298 0.143045 0.5 -0.606509 0.292172
414 1 0.69281 0.900644 0.5 0.781337 -0.21991
415 1 0.595435 0.229945 0.5 -0.114183 -0.531519
416 1 0.332804 0.34249 0.5 -0.131855 -0.614976
417 1 0.178979 0.170507 0.5 -0.341972 0.759096
418 1 0.941595 0.542568 0.5 0.237661 -0.306093
419 1 0.987124 0.570274 0.5 -0.469868 -0.434407
420 1 0.241144 0.948509 0.5 0.00588951 -0.00562131
421 1 0.666657 0.638636 0.5 0.699383 -0.49271
422 1 0.361478 0.0399447 0.5 0.486151 -0.604669
423 1 0.238512 0.864089 0.5 0.588585 -0.33534
424 1 0.424303 0.509891 0.5 0.504398 -0.479922
425 1 0.984162 0.385841 0.5 -0.1907 -0.154979
426 1 0.776475 0.451477 0.5 0.595974 -0.749228
427 1 0.346467 0.180757 0.5 -0.366846 0.387562
428 1 0.729751 0.0935596 0.5 0.444587 0.75618
429 1 0.372471 0.712652 0.5 0.712781 -0.635035
430 1 0.818347 0.58403 0.5 0.614405 -0.704703
431 1 0.76619 0.0802468 0.5 0.78761 0.221302
432 1 0.347203 0.275488 0.5 -0.554519 0.559975
433 1 0.0300756 0.377941 0.5 -0.491715 -0.704824
434 1 0.279402 0.716335 0.5 0.117369 -0.80727
435 1 0.965236 0.757217 0.5 -0.530065 0.412233
436 1 0.308411 0.5512 0.5 0.436097 -0.758289
437 1 0.290006 0.379031 0.5 -0.315043 -0.129071
438 1 0.586912 0.800477 0.5 -0.0921552 -0.58759
439 1 0.729292 0.627644 0.5 -0.510724 -0.564084
440 1 0.321448 0.606659 0.5 -0.241068 -0.254404
441 1 0.642218 0.127125 0.5 0.482924 0.481378
442 1 0.0314679 0.00480294 0.5 0.64973 0.00643638
443 1 0.628543 0.941266 0.5 -0.690748 -0.2245
444 1 0.437976 0.785213 0.5 0.678084 0.0233981
445 1 0.476232 0.259758 0.5 -0.0501546 0.224192
446 1 0.798396 0.292227 0.5 0.775666 -0.227866
447 1 0.109831 0.780498 0.5 -0.086749 -0.114316
448 1 0.302548 0.728188 0.5 -0.023862 -0.778257
449 1 0.645372 0.173862 0.5 0.808138 -0.0382657
450 1 0.620978 0.852221 0.5 0.133797 -0.583951
451 1 0.0798451 0.0963191 0.5 0.613082 -0.250855
452 1 0.914418 0.499869 0.5 -0.151735 -0.488052
453 1 0.696003 0.645178 0.5 0.576052 -0.167684
454 1 0.613765 0.135068 0.5 -0.204371 -0.182179
455 1 0.00741369 0.171894 0.5 0.23642 0.77357
456 1 0.985294 0.831686 0.5 0.425283 -0.398158
457 1 0.383321 0.0266305 0.5 -0.0771464 -0.525029
458 1 0.774389 0.654266 0.5 -0.603064 0.513115
459 1 0.231247 0.421614 0.5 -0.7449 -0.205166
460 1 0.93057 0.0218464 0.5 0.252428 -0.447866
461 1 0.846056 0.617671 0.5 0.560556 -0.374344
462 1 0.928508 0.739333 0.5 -0.692546 -0.258479
463 1 0.629295 0.232125 0.5 -0.783559 -0.077969
464 1 0.509138 0.558344 0.5 0 0
465 1 0.342731 0.590765 0.5 -0.131089 0.436416
466 1 0.269689 0.973778 0.5 0.256467 -0.195191
467 1 0.588481 0.666913 0.5 -0.401959 -0.163816
468 1 0.0409394 0.454749 0.5 -0.495041 0.562804
469 1 0.23195 0.177289 0.5 0.346331 -0.192594
470 1 0.918808 0.487212 0.5 0.280735 -0.617739
471 1 0.688643 0.546981 0.5 0.484735 -0.205163
472 1 0.363471 0.540368 0.5 -0.15693 -0.687194
473 1 0.611476 0.865788 0.5 -0.000342141 -0.397518
474 1 0.779422 0.329768 0.5 0.313073 -0.686935
475 1 0.306651 0.220814 0.5 0.219939 0.0696281
476 1 0.458654 0.555115 0.5 0.0906513 0.0145134
477 1 0.48353 0.356553 0.5 -0.786444 0.172364
478 1 0.0766681 0.477695 0.5 -0.516432 -0.322527
479 1 0.477752 0.188919 0.5 -0.902383 0.0908312
480 1 0.739255 0.190111 0.5 0.69186 0.430549
481 1 0.838138 0.515282 0.5 -0.43198 -0.773636
482 1 0.27366 0.441715 0.5 -0.52243 -0.230523
483 1 0.159014 0.647233 0.5 0.719874 -0.34875
484 1 0.739141 0.331911 0.5 0.735545 -0.37688
485 1 0.570134 0.0873406 0.5 0.0696694 0.154665
486 1 0.202269 0.386432 0.5 0.394824 0.201807
487 1 0.430214 0.14108 0.5 -0.271861 0.572468
488 1 0.0238739 0.560447 0.5 -0.268792 -0.467147
489 1 0.726294 0.0846594 0.5 0.368589 0.836519
490 1 0.0592277 0.627692 0.5 -0.00455976 0.713592
491 1 0.0682821 0.538581 0.5 0.27853 -0.728415
492 1 0.720933 0.289271 0.5 0.25731 -0.275899
493 1 0.765711 0.509436 0.5 0.119594 -0.84818
494 1 0.976571 0.199944 0.5 0.22676 -0.420975
495 1 0.791106 0.922229 0.5 -0.256954 0.822658
496 1 0.93403 0.189287 0.5 0.609162 -0.090944
497 1 0.0901749 0.945013 0.5 0.299768 -0.902813
498 1 0.233845 0.960971 0.5 -0.300033 -0.178448
499 1 0.140961 0.639309 0.5 0.476391 0.100287
500 1 0.149562 0.390557 0.5 -0.842052 0.145381
501 1 0.208161 0.990166 0.5 -0.0350542 0.575297
502 1 0.139058 0.168018 0.5 0.112019 0.690162
503 1 0.608296 0.492915 0.5 -0.1132 0.575288
504 1 0.242626 0.977572 0.5 -0.171456 0.0917471
505 1 0.052658 0.0635492 0.5 -0.518728 -0.531861
506 1 0.0281362 0.611044 0.5 0.302513 0.703637
507 1 0.673238 0.412359 0.5 0.804768 0.0664161
508 1 0.614865 0.113219 0.5 -0.358185 0.49435
509 1 0.764044 0.620108 0.5 -0.13057 0.180531
510 1 0.587918 0.10294 0.5 0.62657 -0.091561
511 1 0.516259 0.0756133 0.5 -0.240338 -0.409724
512 1 0.61421 0.444595 0.5 -0.3445 0.634182
513 1 0.441419 0.0865803 0.5 0.11171 0.219072
514 1 0.616921 0.798162 0.5 -0.530689 -0.50333
515 1 0.602109 0.430442 0.5 0.702148 0.597958
516 1 0.892671 0.107166 0.5 0.503963 -0.405869
517 1 0.550216 0.62634 0.5 0.399568 0.375506
518 1 0.95273 0.629252 0.5 0.32422 0.309922
519 1 0.408552 0.456946 0.5 -0.745232 -0.596347
520 1 0.724556 0.610612 0.5 0.535778 -0.208965
521 1 0.0693671 0.0113743 0.5 0.256083 0.0722591
522 1 0.536071 0.550799 0.5 0.154485 -0.0961683
523 1 0.274495 0.999987 0.5 -0.677428 0.302002
524 1 0.154584 0.851933 0.5 0.458857 -0.719352
525 1 0.393341 0.948332 0.5 0.0953649 -0.534731
526 1 0.319909 0.241794 0.5 0.428854 -0.820818
527 1 0.330714 0.831465 0.5 0.768742 -0.0185939
528 1 0.388789 0.757632 0.5 0.38256 -0.345209
529 1 0.734561 0.516262 0.5 0.158067 -0.925085
530 1 0.282936 0.208597 0.5 -0.696219 0.464324
531 1 0.146714 0.947417 0.5 0.584412 -0.208669
532 1 0.506508 0.346319 0.5 -0.506412 -0.427162
533 1 0.955525 0.752781 0.5 -0.00077203 0.286063
534 1 0.245516 0.685124 0.5 -0.099387 -0.182589
535 1 0.22346 0.574821 0.5 -0.0834822 -0.681714
536 1 0.113171 0.412202 0.5 -0.818868 -0.0310559
537 1 0.778249 0.397312 0.5 0.549577 -0.715685
538 1 0.0638327 0.299647 0.5 0.191338 -0.585087
539 1 0.561287 0.131318 0.5 0.320595 -0.572014
540 1 0.706214 0.804429 0.5 -0.0862847 0.249434
541 1 0.536698 0.390725 0.5 0.382356 -0.280449
542 1 0.252911 0.604939 0.5 -0.238631 -0.629526
543 1 0.967864 0.97015 0.5 -0.140916 -0.834296
544 1 0.610333 0.927932 0.5 -0.273421 -0.432782
545 1 0.708334 0.974583 0.5 0.405613 -0.695678
546 1 0.329689 0.979723 0.5 -0.354997 -0.0186
547 1 0.54334 0.99318 0.5 0.515162 -0.738918
548 1 0.576102 0.785549 0.5 -0.40009 -0.243592
549 1 0.543364 0.312143 0.5 -0.640362 0.353799
550 1 0.189498 0.90616 0.5 0.494252 0.101519
551 1 0.327777 0.822641 0.5 0.53053 0.112791
552 1 0.408733 0.633615 0.5 -0.05849 -0.0677675
553 1 0.179099 0.00357917 0.5 0.21752 0.814259
554 1 0.314687 0.112508 0.5 -0.0812376 0.0187175
555 1 0.0452544 0.157556 0.5 0.200673 -0.713902
556 1 0.373775 0.621163 0.5 0.399051 -0.378344
557 1 0.092344 0.06748 0.5 0.499068 -0.633448
558 1 0.756329 0.199651 0.5 0.904585 0.176801
559 1 0.967851 0.30643 0.5 0.277294 0.0654888
560 1 0.919752 0.462433 0.5 -0.26494 -0.556297
561 1 0.681856 0.883761 0.5 -0.258387 -0.540386
562 1 0.987651 0.695225 0.5 -0.0433292 0.505116
563 1 0.547155 0.919763 0.5 0.118158 -0.216245
564 1 0.453578 0.654234 0.5 -0.269049 0.672093
565 1 0.429629 0.907602 0.5 -0.0614256 -0.66211
566 1 0.0971631 0.0101527 0.5 0.645716 0.423143
567 1 0.480924 0.277516 0.5 -0.74621 -0.254365
568 1 0.00485243 0.217602 0.5 0.00932936 0.59748
569 1 0.212005 0.579507 0.5 -0.0388029 -0.586812
570 1 0.575737 0.815543 0.5 -0.483264 -0.77161
571 1 0.0901684 0.634923 0.5 -0.141686 0.589993
572 1 0.412853 0.890102 0.5 -0.234592 -0.268805
573 1 0.88885 0.170541 0.5 0.840631 0.124217
574 1 0.270916 0.128862 0.5 -0.886004 0.1878
575 1 0.203913 0.950584 0.5 0.442343 0.260728
576 1 0.908408 0.240123 0.5 0.560891 -0.65187
577 1 0.863659 0.373879 0.5 0.570276 -0.76414
578 1 0.957716 0.380527 0.5 0.879994 -0.335324
579 1 0.400253 0.77276 0.5 0.487462 -0.704166
580 1 0.956194 0.669369 0.5 0.185957 -0.218286
581 1 0.416084 0.311782 0.5 -0.796004 -0.573956
582 1 0.856189 0.469971 0.5 -0.18728 -0.442564
583 1 0.124048 0.72426 0.5 0.593056 -0.414982
584 1 0.792122 0.209893 0.5 0.788507 -0.311603
585 1 0.999904 0.811361 0.5 -0.582051 -0.0864231
586 1 0.547316 0.715703 0.5 0.101389 0.741014
587 1 0.16444 0.118036 0.5 0.363394 -0.646689
588 1 0.0665708 0.958716 0.5 0.774022 -0.47446
589 1 0.690479 0.30441 0.5 0.607337 -0.0159656
590 1 0.454316 0.773691 0.5 0.355832 -0.448829
591 1 0.861818 0.706747 0.5 0.191578 -0.609006
592 1 0.682474 0.62976 0.5 0.309154 -0.192054
593 1 0.0500768 0.218517 0.5 0.821809 -0.0838155
594 1 0.462871 0.397636 0.5 -0.462126 0.0893199
595 1 0.0410802 0.889139 0.5 0.634437 -0.34001
596 1 0.251036 0.713722 0.5 0.0935581 -0.767288
597 1 0.827427 0.125834 0.5 0.460558 -0.626609
598 1 0.200575 0.415316 0.5 0.239778 0.82261
599 1 0.277628 0.0427263 0.5 -0.871241 -0.0135079
600 1 0.524891 0.394576 0.5 -0.173177 -0.699596
601 1 0.894823 0.0385871 0.5 0.733694 -0.571739
602 1 0.429494 0.565474 0.5 -0.472176 -0.770497
603 1 0.167982 0.558294 0.5 -0.0289056 0.813112
604 1 0.609763 0.817001 0.5 0.0280828 -0.331291
605 1 0.975142 0.921609 0.5 0.799332 -0.4093
606 1 0.852314 0.181304 0.5 0.846871 0.0804389
607 1 0.308418 0.977016 0.5 -0.401617 -0.0354316
608 1 0.958188 0.204937 0.5 0.527314 -0.759487
609 1 0.384513 0.110126 0.5 -0.0219772 -0.468796
610 1 0.961856 0.795596 0.5 -0.425377 0.697895
611 1 0.878126 0.0942377 0.5 0.377256 0.0555333
612 1 0.3764 0.703612 0.5 0.613604 -0.616001
613 1 0.388265 0.816597 0.5 -0.0856017 -0.228016
614 1 0.386515 0.673288 0.5 0.756794 -0.458096
615 1 0.809501 0.824078 0.5 -0.142042 0.370392
616 1 0.73288 0.224106 0.5 -0.261674 -0.784713
617 1 0.868522 0.607308 0.5 0.074328 -0.478052
618 1 0.719134 0.0914471 0.5 0.401168 0.866792
619 1 0.0889641 0.0770624 0.5 0.586767 -0.67962
620 1 0.894314 0.730515 0.5 -0.183797 0.026483
621 1 0.249696 0.506459 0.5 0.189864 0.495275
622 1 0.949224 0.0929435 0.5 0.3937 -0.833058
623 1 0.68772 0.122732 0.5 0.367345 0.651956
624 1 0.431037 0.20632 0.5 -0.74991 -0.495693
625 1 0.117792 0.686757 0.5 0.136818 0.648726
626 1 0.554485 0.849489 0.5 0.875071 -0.373415
627 1 0.886231 0.270894 0.5 0.423124 -0.512947
628 1 0.695821 0.857726 0.5 0.892804 -0.0724142
629 1 0.744035 0.24938 0.5 0.735035 -0.48284
630 1 0.402523 0.124702 0.5 -0.597567 -0.0325389
631 1 0.871674 0.325576 0.5 0.727757 -0.436206
632 1 0.402056 0.267925 0.5 -0.383614 -0.0124126
633 1 0.968828 0.841997 0.5 0.000689703 -0.265556
634 1 0.813625 0.712532 0.5 0.026664 -0.741814