LAMMPS (11 Aug 2017)
Created orthogonal box = (-58.36 -58.36 -0.5) to (58.36 58.36 0.5)
  8 by 4 by 1 MPI processor grid
Neighbor list info ...
  update every 1 steps, delay 10 steps, check yes
  max neighbors/atom: 2000, page size: 100000
  master list distance cutoff = 1.42246
  ghost atom cutoff = 1.42246
  binsize = 0.711231, bins = 165 165 2
  1 neighbor lists, perpetual/occasional/extra = 1 0 0
  (1) pair lj/cut, perpetual
      attributes: half, newton on
      pair build: half/bin/atomonly/newton
      stencil: half/bin/2d/newton
      bin: standard
Created 10000 atoms
Lattice spacing in x,y,z = 1.69904 2.94283 1.69904
Deleted 233 atoms, new total = 9767
Created 55 atoms
Created 178 atoms
WARNING: Using 'neigh_modify every 1 delay 0 check yes' setting during minimization (../min.cpp:168)
Setting up cg style minimization ...
  Unit style    : lj
  Current step  : 0
Per MPI rank memory allocation (min/avg/max) = 4.178 | 4.178 | 4.179 Mbytes
Step Temp E_pair E_mol TotEng Press 
       0            0 5.4748033e+23            0 5.4748033e+23 2.4111776e+24 
     183            0 7.3107799e-07            0 7.3107799e-07 0.00056137334 
Loop time of 0.0272648 on 32 procs for 183 steps with 10000 atoms

98.9% CPU use with 32 MPI tasks x no OpenMP threads

Minimization stats:
  Stopping criterion = energy tolerance
  Energy initial, next-to-last, final = 
     5.47480325229e+23  7.31131725601e-07  7.31077987189e-07
  Force two-norm initial, final = 1.68508e+31 0.899751
  Force max component initial, final = 1.19152e+31 0.219254
  Final line search alpha, max atom move = 0.0142518 0.00312475
  Iterations, force evaluations = 183 390

MPI task timing breakdown:
Section |  min time  |  avg time  |  max time  |%varavg| %total
---------------------------------------------------------------
Pair    | 0.0043235  | 0.0060614  | 0.0079696  |   1.0 | 22.23
Neigh   | 0.0020664  | 0.0027416  | 0.00315    |   0.4 | 10.06
Comm    | 0.0043943  | 0.0060131  | 0.0089211  |   1.3 | 22.05
Output  | 0          | 0          | 0          |   0.0 |  0.00
Modify  | 0.00030136 | 0.0003525  | 0.0004003  |   0.0 |  1.29
Other   |            | 0.0121     |            |       | 44.37

Nlocal:    312.5 ave 340 max 253 min
Histogram: 1 1 0 1 1 2 8 10 5 3
Nghost:    98.5938 ave 110 max 81 min
Histogram: 2 1 0 2 6 4 4 5 6 2
Neighs:    739.594 ave 894 max 516 min
Histogram: 1 1 1 1 3 7 10 5 1 2

Total # of neighbors = 23667
Ave neighs/atom = 2.3667
Neighbor list builds = 44
Dangerous builds = 0
55 atoms in group IN
9945 atoms in group OUT
Setting up Verlet run ...
  Unit style    : lj
  Current step  : 0
  Time step     : 0.005
Per MPI rank memory allocation (min/avg/max) = 5.143 | 5.151 | 5.159 Mbytes
Step Temp E_pair E_mol TotEng Press 
       0            0 7.3107799e-07            0 7.3107799e-07 0.00056137334 
 1000000  0.025082098 0.0047857163            0  0.029865306   0.18911366 
 2000000  0.024713214 0.0045427866            0   0.02925353   0.18316345 
 3000000  0.025114902 0.0047274212            0  0.029839811    0.1902961 
 4000000  0.024743663 0.0047418185            0  0.029483007    0.1858254 
 5000000  0.024962176  0.004552062            0  0.029511742   0.18335055 
 6000000  0.024998287  0.005106184            0  0.030101971   0.19897489 
 7000000  0.024754287 0.0047833467            0  0.029535158   0.18857965 
 8000000  0.024905459 0.0045884117            0  0.029491381   0.18423549 
 9000000  0.025037909  0.005032346            0  0.030067751   0.19595219 
10000000  0.025037209 0.0044499105            0  0.029484616   0.17984671 
11000000  0.024727257 0.0047861506            0  0.029510935   0.19113366 
12000000  0.024956425  0.004726402            0  0.029680331   0.18869725 
13000000  0.024655563 0.0049335685            0  0.029586666   0.19341456 
14000000    0.0243926 0.0047183962            0  0.029108557   0.18657886 
15000000  0.024701034 0.0045876541            0  0.029286218    0.1838612 
16000000  0.025090937 0.0049098981            0  0.029998326   0.19373775 
17000000  0.024745922  0.004763412            0   0.02950686   0.18988415 
18000000  0.025311446 0.0048115851            0    0.0301205   0.19132982 
19000000  0.024464114 0.0047174504            0  0.029179118   0.18791273 
20000000  0.024491482 0.0047309753            0  0.029220008   0.18978217 
21000000  0.024565994 0.0049884387            0  0.029551976   0.19502284 
22000000   0.02456552 0.0046198996            0  0.029182963   0.18659195 
23000000  0.025060743 0.0047786726            0  0.029836909    0.1918673 
24000000  0.025031959 0.0047181748            0  0.029747631   0.18934285 
25000000  0.024909394 0.0044951649            0  0.029402068     0.180784 
26000000  0.025126025 0.0047751506            0  0.029898663   0.19013332 
27000000  0.025004071 0.0050049582            0  0.030006529   0.19376467 
28000000   0.02444552 0.0048269384            0  0.029270014   0.19152003 
29000000   0.02469663 0.0046156057            0  0.029309766   0.18550579 
30000000  0.024954248 0.0048329846            0  0.029784737   0.19051631 
31000000  0.024658598 0.0046373538            0  0.029293486   0.18535618 
32000000  0.025106789 0.0046745353            0  0.029778813   0.18705754 
33000000  0.025056587 0.0048229514            0  0.029877033   0.19185907 
34000000  0.025023096  0.004703583            0  0.029724177   0.18765319 
35000000  0.025583289 0.0049929701            0  0.030573701   0.19482869 
36000000   0.02515398 0.0048789107            0  0.030030375    0.1925835 
37000000  0.024965357 0.0048876886            0   0.02985055   0.19224162 
38000000  0.024956075 0.0047152984            0  0.029668878   0.18859544 
39000000  0.024551886 0.0046327734            0  0.029182204   0.18609758 
40000000  0.024880219 0.0045846332            0  0.029462365   0.18352284 
41000000  0.025003418 0.0047317537            0  0.029732671   0.18974348 
42000000  0.025078683 0.0047020709            0  0.029778246   0.18926643 
43000000  0.024888923 0.0048367478            0  0.029723181   0.18892998 
44000000  0.024959465 0.0047545728            0  0.029711542   0.19060972 
45000000   0.02455776 0.0046107268            0  0.029166031   0.18636609 
46000000  0.025125892 0.0047522789            0  0.029875658   0.18871691 
47000000  0.024558329 0.0047263515            0  0.029282225   0.18647792 
48000000  0.024656429 0.0045951351            0  0.029249099   0.18464111 
49000000  0.025057565 0.0049165912            0   0.02997165    0.1913141 
50000000   0.02507094 0.0047628414            0  0.029831275     0.189112 
51000000  0.025273173 0.0049004978            0  0.030171144   0.19104048 
52000000  0.024780247 0.0050349922            0  0.029812761   0.19600281 
53000000  0.025006677 0.0046877345            0   0.02969191   0.18824232 
54000000  0.025135366 0.0047817455            0  0.029914598   0.19075207 
55000000  0.024974973 0.0047967726            0  0.029769248   0.19221101 
56000000  0.024801189 0.0048534304            0  0.029652139   0.19087305 
57000000  0.024645263 0.0047581752            0  0.029400974   0.18985706 
58000000  0.024428454 0.0049074144            0  0.029333426    0.1943663 
59000000  0.025103918  0.004644361            0  0.029745769    0.1845066 
60000000  0.024415594  0.004702028            0   0.02911518   0.18705187 
61000000  0.024971943 0.0048355985            0  0.029805044   0.19156093 
62000000  0.024712985  0.004777843            0  0.029488356   0.18946846 
63000000  0.025022284 0.0046986286            0   0.02971841   0.18786016 
64000000  0.025280593 0.0048330619            0  0.030111127   0.19227485 
65000000  0.024353361 0.0048805894            0  0.029231515   0.19265245 
66000000  0.025071377 0.0047099417            0  0.029778812   0.18908803 
67000000  0.024542524 0.0048113734            0  0.029351443   0.19070172 
68000000  0.024902407 0.0047459151            0  0.029645832   0.18978699 
69000000  0.024941975 0.0048649421            0  0.029804423   0.19000544 
70000000   0.02469242 0.0048486232            0  0.029538574   0.19171475 
71000000  0.025055365 0.0047603914            0  0.029813251   0.18945005 
72000000  0.025137525 0.0047025805            0  0.029837592   0.18690879 
73000000  0.025097604 0.0046383011            0  0.029733395   0.18595557 
74000000  0.024599629 0.0049857049            0  0.029582874   0.19384962 
75000000  0.025025587 0.0048924385            0  0.029915523   0.19444725 
76000000  0.024822409 0.0049557082            0  0.029775635   0.19372395 
77000000  0.024680984  0.004494642            0  0.029173158   0.18215958 
78000000  0.024364689 0.0049502176            0   0.02931247   0.19507451 
79000000  0.024666933 0.0047395116            0  0.029403978   0.18771123 
80000000  0.025078067 0.0048294684            0  0.029905027   0.19270399 
81000000  0.024879428 0.0047092006            0  0.029586141    0.1887676 
82000000  0.024863426 0.0047980548            0  0.029658994   0.19044807 
83000000  0.025086206 0.0048654482            0  0.029949146   0.19232642 
84000000  0.025002232 0.0048923409            0  0.029892073   0.19200558 
85000000  0.024913219  0.004701672            0    0.0296124   0.18624793 
86000000  0.024881347  0.004848744            0  0.029727602   0.19089493 
87000000   0.02499882 0.0048894877            0  0.029885808   0.19237703 
88000000  0.024498587  0.004667042            0  0.029163179   0.18480671 
89000000  0.025132684 0.0047120235            0  0.029842194    0.1891577 
90000000  0.024873286 0.0047869012            0    0.0296577   0.19198152 
91000000  0.024938298 0.0046736045            0  0.029609409   0.18753372 
92000000  0.024774921 0.0048112507            0  0.029583694     0.190208 
93000000  0.024542611 0.0047634789            0  0.029303636   0.18942978 
94000000  0.024817011 0.0049236821            0  0.029738212   0.19248622 
95000000  0.025130159 0.0049706955            0  0.030098341   0.19588175 
96000000  0.025044206 0.0046884702            0  0.029730172   0.18697692 
97000000  0.024925338  0.004699987            0  0.029622832   0.18840267 
98000000  0.024847218  0.004582637            0   0.02942737   0.18649857 
99000000  0.025222817 0.0048012386            0  0.030021533   0.18990505 
100000000  0.024629339 0.0047630112            0  0.029389887   0.19064756 
Loop time of 3588.07 on 32 procs for 100000000 steps with 10000 atoms

Performance: 12039905.531 tau/day, 27870.152 timesteps/s
99.4% CPU use with 32 MPI tasks x no OpenMP threads

MPI task timing breakdown:
Section |  min time  |  avg time  |  max time  |%varavg| %total
---------------------------------------------------------------
Pair    | 701.31     | 758.79     | 812.31     |  97.6 | 21.15
Neigh   | 122.67     | 128.15     | 140.01     |  23.2 |  3.57
Comm    | 799.43     | 960.6      | 1136       | 289.3 | 26.77
Output  | 0.29818    | 0.29824    | 0.29913    |   0.0 |  0.01
Modify  | 1095.7     | 1260.4     | 1454.5     | 262.4 | 35.13
Other   |            | 479.8      |            |       | 13.37

Nlocal:    312.5 ave 321 max 297 min
Histogram: 2 1 0 0 0 8 8 7 3 3
Nghost:    96.375 ave 103 max 81 min
Histogram: 1 0 1 0 2 4 7 6 5 6
Neighs:    781.625 ave 850 max 700 min
Histogram: 3 0 0 5 3 8 5 5 1 2

Total # of neighbors = 25012
Ave neighs/atom = 2.5012
Neighbor list builds = 2206180
Dangerous builds = 0
Total wall time: 0:59:48
