# LAMMPS data file written by Ovito 3.7.11
9945 atoms
1 atom types
-58.36 58.36 xlo xhi
-58.36 58.36 ylo yhi
-0.5 0.5 zlo zhi

Atoms  # atomic

1 1 32.24728488 56.98398792 0.0
2 1 -52.554568968 55.20949376 0.0
3 1 53.87841888 48.38137376 0.0
4 1 -20.55299136 -35.07751144 0.0
5 1 23.33804728 44.92517784 0.0
6 1 42.3588552 42.65567416 0.0
7 1 6.07399208 37.71970208 0.0
8 1 47.46162016 28.02225432 0.0
9 1 16.12708568 -38.84803432 0.0
10 1 -14.16012024 -58.2156605464 0.0
11 1 9.83471048 21.97825928 0.0
12 1 -24.12695776 -51.517488424 0.0
13 1 -9.19741928 53.33905576 0.0
14 1 30.20118328 -35.91229288 0.0
15 1 -56.567145784 -45.27136936 0.0
16 1 27.14720448 -28.57025472 0.0
17 1 53.10316464 20.61555328 0.0
18 1 3.66430768 35.23064808 0.0
19 1 41.86944824 35.24115288 0.0
20 1 43.3457228 49.19759672 0.0
21 1 27.98630456 -7.69511616 0.0
22 1 35.72308976 31.67699096 0.0
23 1 -14.78655648 -35.20170152 0.0
24 1 57.71348792 -19.28646264 0.0
25 1 46.56532728 42.06156936 0.0
26 1 23.0043448 -57.886315224 0.0
27 1 46.4119572 38.70108384 0.0
28 1 35.34445008 24.26620472 0.0
29 1 -58.0101644816 46.40623792 0.0
30 1 0.05147352 47.88309608 0.0
31 1 45.86594104 28.01595144 0.0
32 1 56.6214556 21.2395384 0.0
33 1 15.04392408 2.322728 0.0
34 1 -6.75563688 -39.6392792 0.0
35 1 16.36379384 -22.65220056 0.0
36 1 -8.73812608 -28.93208672 0.0
37 1 50.9231852 53.78842776 0.0
38 1 23.7250908 -31.66893728 0.0
39 1 43.104696 -45.66576624 0.0
40 1 42.55074288 38.669336 0.0
41 1 16.18567912 -5.65520072 0.0
42 1 50.609792 -45.79614248 0.0
43 1 -56.446212192 -46.41534208 0.0
44 1 33.83035824 44.63337784 0.0
45 1 11.1998676 -45.43606128 0.0
46 1 51.93176272 -1.94035328 0.0
47 1 42.20093304 -41.32308192 0.0
48 1 50.98481336 42.9827236 0.0
49 1 43.09780952 -8.17822024 0.0
50 1 42.03215592 -16.8672072 0.0
51 1 -10.67322696 55.316526 0.0
52 1 -35.07716128 -36.12857504 0.0
53 1 36.35454496 -28.71580456 0.0
54 1 -22.64671472 -34.1353476 0.0
55 1 0.23962616 32.89823232 0.0
56 1 28.75595624 23.54662592 0.0
57 1 50.24877704 -49.811147072 0.0
58 1 28.62721408 -29.92490704 0.0
59 1 33.15886808 48.15610416 0.0
60 1 35.52618312 1.92039416 0.0
61 1 34.18063496 -57.63832024 0.0
62 1 44.92120936 53.90082912 0.0
63 1 9.2658172 -51.78090212 0.0
64 1 -55.527182256 -50.8528614 0.0
65 1 26.47583104 -49.06366052 0.0
66 1 26.40509872 4.83267488 0.0
67 1 40.44593112 -23.39990888 0.0
68 1 55.021808 23.2255292 0.0
69 1 52.75148728 -47.24953992 0.0
70 1 -1.20758512 -57.88095194 0.0
71 1 10.7668364 6.28922376 0.0
72 1 26.8613572 42.013364 0.0
73 1 -37.601348 -51.435224168 0.0
74 1 13.0101948 18.6646952 0.0
75 1 38.19323512 -23.440294 0.0
76 1 34.95985768 17.3113268 0.0
77 1 -18.94342256 56.0787076 0.0
78 1 -18.01129664 37.92256144 0.0
79 1 14.3892416 -56.753641 0.0
80 1 25.36769136 49.93421664 0.0
81 1 2.14309592 -36.25579984 0.0
82 1 -16.21089064 -45.39801056 0.0
83 1 28.67378536 48.74530672 0.0
84 1 -5.35663096 18.31383488 0.0
85 1 -40.69874664 -36.87663352 0.0
86 1 31.02277536 30.63234696 0.0
87 1 37.08439512 33.28527584 0.0
88 1 -56.366037224 -20.69597336 0.0
89 1 30.13722072 -57.401081004 0.0
90 1 -18.89334968 -36.46519552 0.0
91 1 -37.97123368 -15.87718816 0.0
92 1 13.9095224 -51.29237056 0.0
93 1 36.2310552 20.85891448 0.0
94 1 -21.95047992 -54.582859096 0.0
95 1 25.1012196 29.3953484 0.0
96 1 14.06814488 54.57278616 0.0
97 1 -32.2012972 39.52617752 0.0
98 1 19.87671568 49.24836992 0.0
99 1 4.90410752 40.57082152 0.0
100 1 -29.5027308 48.6932496 0.0
101 1 7.6474944 -53.224098232 0.0
102 1 -16.53140376 43.3743192 0.0
103 1 8.64276584 -11.91232648 0.0
104 1 -33.80538016 27.4863928 0.0
105 1 3.0370544 9.82945808 0.0
106 1 50.74647112 44.16404672 0.0
107 1 13.30934816 -16.48751704 0.0
108 1 -29.36803592 -38.89904096 0.0
109 1 36.80800216 -6.47013976 0.0
110 1 -51.4624316 -52.403766728 0.0
111 1 33.3755004 2.84119824 0.0
112 1 34.131846 -29.26648952 0.0
113 1 -50.240279824 -44.31006344 0.0
114 1 57.5919824 54.78206512 0.0
115 1 -33.35087248 -31.60730912 0.0
116 1 25.86153368 -13.2109532 0.0
117 1 31.52735592 45.4787808 0.0
118 1 44.97408352 22.08412432 0.0
119 1 34.47371888 -20.1727176 0.0
120 1 16.7504872 5.42199416 0.0
121 1 34.72513376 16.22396328 0.0
122 1 -1.72780616 26.11808424 0.0
123 1 4.16060112 -43.250596 0.0
124 1 -55.058294672 44.81242632 0.0
125 1 24.43579888 49.13048272 0.0
126 1 -21.48254944 -41.94928472 0.0
127 1 -43.66985424 3.91280456 0.0
128 1 20.14435464 32.02201528 0.0
129 1 14.39496088 -34.263156 0.0
130 1 44.17315088 -27.7040756 0.0
131 1 19.40726784 -50.32563716 0.0
132 1 -40.53767304 9.9655536 0.0
133 1 -37.73219112 -41.27522672 0.0
134 1 16.47759584 -44.94502024 0.0
135 1 14.18824976 -22.7230496 0.0
136 1 52.31250336 0.99235344 0.0
137 1 27.2261072 44.53521632 0.0
138 1 -15.29919072 -22.30495856 0.0
139 1 22.1546232 42.80367512 0.0
140 1 -37.37747904 -26.82295632 0.0
141 1 11.1666024 -53.165749904 0.0
142 1 49.46838712 12.56047264 0.0
143 1 -9.1175828 -34.48165584 0.0
144 1 -47.402629872 -41.89302568 0.0
145 1 -17.93040968 29.26555576 0.0
146 1 30.96149736 10.77885856 0.0
147 1 17.35883184 40.0804808 0.0
148 1 37.12302944 -38.70890408 0.0
149 1 23.33629648 -38.65801416 0.0
150 1 24.42412688 6.36287408 0.0
151 1 43.76019552 4.34793672 0.0
152 1 30.05586688 -33.22995056 0.0
153 1 24.04420328 32.25347104 0.0
154 1 -43.19818872 38.02317408 0.0
155 1 48.850238 -27.081958 0.0
156 1 -13.99928008 -31.85615616 0.0
157 1 23.49958776 57.80896488 0.0
158 1 -3.29197088 -30.51037456 0.0
159 1 -57.734882696 -48.260895376 0.0
160 1 -25.99576168 41.69028304 0.0
161 1 17.12936032 -42.71636856 0.0
162 1 52.25577744 -26.98227912 0.0
163 1 -0.8001156 36.1458496 0.0
164 1 -7.71787656 26.9348908 0.0
165 1 -16.55918312 -3.94501928 0.0
166 1 5.29406904 -47.113421056 0.0
167 1 29.79884944 -19.7910432 0.0
168 1 23.42780496 55.9859152 0.0
169 1 -1.78149736 39.10633568 0.0
170 1 50.62543248 31.63485504 0.0
171 1 23.74154832 -56.588178728 0.0
172 1 9.54734584 43.13177504 0.0
173 1 1.44662768 -29.71130944 0.0
174 1 -43.8668776 28.48061376 0.0
175 1 -31.61898112 -41.92792496 0.0
176 1 56.70421008 42.77881376 0.0
177 1 58.14862008 -17.84613784 0.0
178 1 26.29981728 -44.4989164 0.0
179 1 17.656818 58.11033592 0.0
180 1 22.99337312 -13.87182184 0.0
181 1 17.16437632 -44.07277168 0.0
182 1 45.70148256 -24.91785248 0.0
183 1 20.26270872 -54.398313104 0.0
184 1 36.64155944 -50.824393392 0.0
185 1 29.06316328 58.12761048 0.0
186 1 -26.92882136 25.55164208 0.0
187 1 6.57297008 -28.18823016 0.0
188 1 56.26814416 -25.8984172 0.0
189 1 -7.94676448 -55.809796392 0.0
190 1 11.67188328 -33.74631984 0.0
191 1 6.31887064 -44.71729952 0.0
192 1 -9.5500304 13.54547272 0.0
193 1 48.42677784 -28.53442168 0.0
194 1 24.1429484 -19.81322 0.0
195 1 -21.25307792 -27.74912952 0.0
196 1 -56.01883024 -22.67554456 0.0
197 1 -3.47031904 19.85652312 0.0
198 1 53.42834656 -13.85384696 0.0
199 1 57.0947552 5.22590456 0.0
200 1 33.41238392 -17.24631376 0.0
201 1 26.83544536 27.47051888 0.0
202 1 -55.654675512 -47.231845168 0.0
203 1 -32.947138 38.20175568 0.0
204 1 36.9004444 27.40795696 0.0
205 1 -4.22199584 50.37250024 0.0
206 1 6.40045792 -32.77485928 0.0
207 1 51.45636216 -29.057444 0.0
208 1 42.00157528 22.62652216 0.0
209 1 20.66515928 44.69640664 0.0
210 1 -34.36026704 -57.760082544 0.0
211 1 40.27878808 -39.89524616 0.0
212 1 18.79355408 31.25481472 0.0
213 1 -36.30248784 -29.76196592 0.0
214 1 21.51534776 -52.531189952 0.0
215 1 17.16846152 -27.52269272 0.0
216 1 52.29336128 -49.700986736 0.0
217 1 36.5170192 -46.00623848 0.0
218 1 -22.80907224 35.63181472 0.0
219 1 18.1289504 15.77108968 0.0
220 1 38.81103408 -49.25181316 0.0
221 1 30.574804 -53.315630056 0.0
222 1 35.98874448 36.2047932 0.0
223 1 -11.24982376 -4.6332004 0.0
224 1 53.0428204 -2.43337856 0.0
225 1 26.67297112 -51.52388468 0.0
226 1 21.18806488 -44.51315624 0.0
227 1 -6.96444896 -42.7381952 0.0
228 1 17.66580544 43.0953584 0.0
229 1 -53.741669728 -56.378129416 0.0
230 1 50.8776644 49.02333376 0.0
231 1 32.39586944 35.15559712 0.0
232 1 48.63267192 14.51903424 0.0
233 1 55.0585748 -11.39980896 0.0
234 1 -25.43748992 37.5494076 0.0
235 1 -21.955032 30.46345312 0.0
236 1 -37.02685216 -37.17088464 0.0
237 1 -38.31660816 -56.482535456 0.0
238 1 26.9809952 -52.843299232 0.0
239 1 41.61639928 32.73143944 0.0
240 1 25.49946824 27.2313596 0.0
241 1 -54.372763096 3.61388464 0.0
242 1 37.10447096 54.00599384 0.0
243 1 17.7992164 37.97298448 0.0
244 1 -18.88891432 -41.69483512 0.0
245 1 48.62636904 -16.58276056 0.0
246 1 -1.07604168 15.85687888 0.0
247 1 23.33711352 33.40713152 0.0
248 1 5.5552884 49.41061072 0.0
249 1 17.86959856 48.62135008 0.0
250 1 -53.744459336 -44.40355616 0.0
251 1 16.364144 33.0049144 0.0
252 1 17.86259536 -54.411584168 0.0
253 1 25.17486992 45.55920088 0.0
254 1 13.55387656 48.44790416 0.0
255 1 28.80848024 56.0121772 0.0
256 1 -0.27452544 37.1152092 0.0
257 1 -11.499838 -58.1057628304 0.0
258 1 51.28770176 -39.93493096 0.0
259 1 -18.3985736 -50.15277484 0.0
260 1 21.52655288 21.67910592 0.0
261 1 -54.18340824 55.20645904 0.0
262 1 -39.9538396 26.61180984 0.0
263 1 44.46541776 11.10334016 0.0
264 1 42.59778104 -54.444184064 0.0
265 1 -44.77706016 45.60565544 0.0
266 1 -8.4172628 22.273094 0.0
267 1 -40.440562 28.60713824 0.0
268 1 1.00332512 -18.33706216 0.0
269 1 -26.031478 -27.63906256 0.0
270 1 49.54845704 17.03388336 0.0
271 1 15.31284696 -24.56535808 0.0
272 1 -4.36917976 28.21390856 0.0
273 1 -10.2847828 -34.81010592 0.0
274 1 9.0580556 -23.25692688 0.0
275 1 -47.159537128 -46.29733816 0.0
276 1 52.68168872 -31.09911024 0.0
277 1 26.45482144 23.21817584 0.0
278 1 -4.6711344 -53.014842616 0.0
279 1 33.08171616 -57.5968052704 0.0
280 1 -45.64895856 -9.4613232 0.0
281 1 -10.50211544 10.45892904 0.0
282 1 54.86213504 18.9022204 0.0
283 1 -34.8835228 57.04351512 0.0
284 1 42.6150556 7.4017988 0.0
285 1 -54.864376064 12.53292672 0.0
286 1 -31.82802664 18.58847704 0.0
287 1 8.9810204 -34.6255716 0.0
288 1 39.84400608 -47.5537706 0.0
289 1 22.94913624 50.51828352 0.0
290 1 -45.43804552 48.7265148 0.0
291 1 -35.25200784 -12.17634712 0.0
292 1 38.7259452 35.02790544 0.0
293 1 -55.48792932 -17.2733928 0.0
294 1 -0.02229352 18.751068 0.0
295 1 16.75819072 -57.6986796536 0.0
296 1 28.64553912 -49.493738704 0.0
297 1 17.06014536 38.81150096 0.0
298 1 19.30595488 51.52009128 0.0
299 1 -32.88084104 31.49724216 0.0
300 1 27.40573928 -29.85382456 0.0
301 1 31.6217824 44.27329664 0.0
302 1 9.49622248 23.12234872 0.0
303 1 20.06521848 58.02431328 0.0
304 1 50.265468 11.52271512 0.0
305 1 -22.04969192 -35.06467224 0.0
306 1 57.18264536 -34.85819456 0.0
307 1 -19.34412232 -31.18501616 0.0
308 1 24.505364 -28.6214948 0.0
309 1 -29.62073472 -36.42142552 0.0
310 1 57.36893048 -2.22981888 0.0
311 1 25.68236848 -37.74771488 0.0
312 1 4.85882016 -35.30709968 0.0
313 1 37.507972 -55.87170468 0.0
314 1 -52.46616524 -27.72543536 0.0
315 1 -21.60557232 -39.67347816 0.0
316 1 37.5966792 -54.685140832 0.0
317 1 52.20302 -24.29911976 0.0
318 1 20.80393936 16.44094576 0.0
319 1 -8.074106 -42.47802632 0.0
320 1 40.76714456 -1.88549488 0.0
321 1 -13.22717728 -16.42612232 0.0
322 1 58.35521448 44.03402064 0.0
323 1 -49.440385992 -3.2646584 0.0
324 1 -28.6063212 19.5190856 0.0
325 1 9.94722856 5.46973264 0.0
326 1 -3.35546656 31.852888 0.0
327 1 -26.33985224 9.23220184 0.0
328 1 -4.4055964 -10.25315168 0.0
329 1 -16.6932944 -41.12232352 0.0
330 1 -11.22893088 5.94851808 0.0
331 1 46.36316824 -43.8114356 0.0
332 1 35.65492528 27.420446 0.0
333 1 41.29460224 -40.44896584 0.0
334 1 24.60784416 -34.39983512 0.0
335 1 -0.41774088 -46.6710756 0.0
336 1 48.06552944 -39.76697088 0.0
337 1 -30.98519152 32.79867016 0.0
338 1 -55.861234896 24.70087 0.0
339 1 10.7108108 -48.73445176 0.0
340 1 -21.5021584 6.47901048 0.0
341 1 -51.177599784 -10.07457008 0.0
342 1 15.67888088 47.55242832 0.0
343 1 55.96525576 8.27813256 0.0
344 1 -31.31912744 -16.13875768 0.0
345 1 -48.96952584 -14.085186 0.0
346 1 52.56321792 -19.48628728 0.0
347 1 -22.13898272 23.00878016 0.0
348 1 -24.62476856 34.08795928 0.0
349 1 42.79725552 43.86290912 0.0
350 1 23.1928476 -37.37386072 0.0
351 1 -29.84507056 10.39169832 0.0
352 1 13.86832024 57.9147132 0.0
353 1 15.08757736 -54.5003614 0.0
354 1 -47.366750144 -36.31357624 0.0
355 1 -50.88776068 -58.14368866 0.0
356 1 27.88860992 47.96129848 0.0
357 1 -12.29084944 20.38888304 0.0
358 1 -18.18976152 -31.00234936 0.0
359 1 -46.12435912 27.966112 0.0
360 1 15.55784224 -11.9684688 0.0
361 1 -52.645400472 -22.471518 0.0
362 1 -51.817038632 -5.34157408 0.0
363 1 17.50835016 -22.98426896 0.0
364 1 -43.97624424 -32.2929224 0.0
365 1 -30.83322208 -28.12881968 0.0
366 1 23.73069336 3.47802256 0.0
367 1 57.55509888 9.34798808 0.0
368 1 -18.39717296 40.13428872 0.0
369 1 -13.73455912 -12.9086484 0.0
370 1 -10.65922056 36.38442528 0.0
371 1 -0.54414864 -56.76788084 0.0
372 1 17.72369856 0.601108 0.0
373 1 -23.93612056 11.05583512 0.0
374 1 17.8301472 18.93910392 0.0
375 1 -41.18908736 -10.7574988 0.0
376 1 4.13784072 -37.34678168 0.0
377 1 -41.84190232 11.83295688 0.0
378 1 -57.185750112 -14.81923808 0.0
379 1 15.0609652 -51.440826728 0.0
380 1 9.3702816 -17.51628712 0.0
381 1 -52.986187856 -8.69657376 0.0
382 1 32.24600096 -50.284995256 0.0
383 1 -53.825614752 -17.96297456 0.0
384 1 -53.805842384 -55.048175048 0.0
385 1 40.52179912 -31.66450192 0.0
386 1 35.64465392 -33.49548856 0.0
387 1 8.62467424 -20.73239 0.0
388 1 16.64123728 -31.86059152 0.0
389 1 -26.7043688 -39.53446464 0.0
390 1 29.79488096 10.99630792 0.0
391 1 2.08041728 11.89715288 0.0
392 1 16.03429328 17.54079832 0.0
393 1 54.55189328 11.20080136 0.0
394 1 -58.2685937667 41.04949024 0.0
395 1 1.307264 15.89574664 0.0
396 1 -56.030257128 -35.78308384 0.0
397 1 -23.05266688 -11.51419456 0.0
398 1 17.71237672 -28.54644384 0.0
399 1 -5.0878248 -26.69117944 0.0
400 1 -7.92108608 -25.38204792 0.0
401 1 -48.356372336 55.96093712 0.0
402 1 38.66128232 6.18102432 0.0
403 1 2.79509384 -47.47796096 0.0
404 1 -53.458880512 -20.2608412 0.0
405 1 22.3991516 -24.85809184 0.0
406 1 27.66228984 -20.67216248 0.0
407 1 18.26107744 8.50877128 0.0
408 1 22.77463984 -29.59225504 0.0
409 1 47.05181624 -51.34028412 0.0
410 1 -11.89470176 40.41243248 0.0
411 1 41.40618656 -39.0463416 0.0
412 1 -3.58073616 -16.4155008 0.0
413 1 -10.7930984 -35.82358568 0.0
414 1 23.63299872 54.82992032 0.0
415 1 32.68230032 -43.17379424 0.0
416 1 47.74338224 -33.063858 0.0
417 1 -24.610412 51.01807856 0.0
418 1 -20.16711504 14.4277592 0.0
419 1 54.99869744 -15.87823864 0.0
420 1 -55.961042168 -11.8955188 0.0
421 1 32.70692824 -32.39995464 0.0
422 1 -11.27701952 7.99520328 0.0
423 1 -40.72092344 20.85833088 0.0
424 1 46.5461852 -42.63991696 0.0
425 1 32.65101936 22.3530472 0.0
426 1 -38.95401608 23.67980344 0.0
427 1 42.61237104 54.54372288 0.0
428 1 47.1735552 -30.0518984 0.0
429 1 -24.5269572 -52.680719944 0.0
430 1 -20.66037376 34.53768144 0.0
431 1 -16.23423464 -31.77596952 0.0
432 1 -43.33136624 -51.257774752 0.0
433 1 -54.520950808 -46.577116 0.0
434 1 -23.47729424 -48.454008616 0.0
435 1 49.56211328 -51.792492416 0.0
436 1 -5.92844224 58.0950456 0.0
437 1 -27.65458632 -18.25255688 0.0
438 1 -21.64584072 2.44971936 0.0
439 1 14.70123416 52.14664424 0.0
440 1 -31.04215088 -22.62255368 0.0
441 1 -16.52743528 -24.76658336 0.0
442 1 34.66712392 46.38429456 0.0
443 1 37.4963 34.37660784 0.0
444 1 47.34793488 -28.8129156 0.0
445 1 -27.48254104 -42.13031744 0.0
446 1 -23.20732088 -7.4426508 0.0
447 1 -17.74879336 43.34712344 0.0
448 1 1.1047548 18.10350544 0.0
449 1 -44.93346496 -4.09418744 0.0
450 1 -40.55518104 51.52055816 0.0
451 1 -25.09164856 -41.8435364 0.0
452 1 -50.66354156 -3.04604184 0.0
453 1 57.30380072 -44.2088672 0.0
454 1 53.84165208 47.24545472 0.0
455 1 36.49355848 29.47273376 0.0
456 1 22.22885712 -13.03774072 0.0
457 1 5.57244624 18.63773288 0.0
458 1 46.6407284 9.2080408 0.0
459 1 13.94710624 -32.6314104 0.0
460 1 8.72271904 -33.466542 0.0
461 1 -57.171872104 11.7776316 0.0
462 1 -38.16545576 -37.07108904 0.0
463 1 -43.49208968 -40.6640808 0.0
464 1 53.97868136 -16.46230552 0.0
465 1 23.54837672 -12.66038496 0.0
466 1 23.17382224 17.496328 0.0
467 1 45.4776136 -39.6567872 0.0
468 1 -25.70909736 -36.63700736 0.0
469 1 -8.56001136 -0.84283512 0.0
470 1 0.3192292 43.48181832 0.0
471 1 -52.242576408 -45.31140432 0.0
472 1 32.50383544 -26.77078248 0.0
473 1 -31.43771496 -30.27389984 0.0
474 1 20.5707328 -20.12346176 0.0
475 1 -30.72747376 -9.71215448 0.0
476 1 10.73485512 21.31610672 0.0
477 1 -17.73023488 -5.78452648 0.0
478 1 -25.0049256 26.46310856 0.0
479 1 35.12840136 -4.60180272 0.0
480 1 -47.825074568 -9.12131784 0.0
481 1 -41.51123456 -53.506420568 0.0
482 1 34.75653144 -10.75481424 0.0
483 1 20.57738584 -41.89559352 0.0
484 1 -41.81423968 -41.35191176 0.0
485 1 -49.113523304 -17.40481952 0.0
486 1 30.34638296 -40.3716972 0.0
487 1 -27.70372544 -2.00781744 0.0
488 1 -7.64130824 54.73502696 0.0
489 1 -36.66128512 -57.974222892 0.0
490 1 39.58337032 56.58982448 0.0
491 1 31.7239124 4.8549684 0.0
492 1 52.71553752 -12.84375208 0.0
493 1 26.2287348 -45.62923288 0.0
494 1 -32.01326128 40.79854224 0.0
495 1 1.6410832 -16.43802776 0.0
496 1 57.98101016 -32.30331048 0.0
497 1 -13.19414552 -23.04204536 0.0
498 1 36.19814016 49.32727264 0.0
499 1 17.89294256 -34.17059704 0.0
500 1 -16.20855624 -19.55678616 0.0
501 1 -48.431434968 -35.52910112 0.0
502 1 -39.88835968 -11.1829432 0.0
503 1 35.31562024 48.49587608 0.0
504 1 30.85808344 -45.52044984 0.0
505 1 34.70564152 -25.99377744 0.0
506 1 -23.92456528 -4.1155472 0.0
507 1 50.2263668 -13.57430256 0.0
508 1 -12.89592592 -32.40345624 0.0
509 1 41.599008 53.97167816 0.0
510 1 37.77397688 31.69333176 0.0
511 1 49.16351448 -52.821846096 0.0
512 1 55.8773656 -3.6013956 0.0
513 1 16.4423464 -35.28305536 0.0
514 1 -43.63495496 10.65665272 0.0
515 1 33.78822232 22.6454308 0.0
516 1 30.2182244 -2.44446696 0.0
517 1 31.21279552 -52.392760032 0.0
518 1 -6.65572456 -13.05093008 0.0
519 1 -38.49764088 -27.05989792 0.0
520 1 -42.52681528 41.46874848 0.0
521 1 -48.920048232 26.97971128 0.0
522 1 -39.0288336 52.074628 0.0
523 1 17.41182272 11.25075752 0.0
524 1 -41.54928528 -45.83512696 0.0
525 1 3.93684888 -31.90085992 0.0
526 1 -54.859788968 -28.1155136 0.0
527 1 -41.10773352 -34.10570072 0.0
528 1 17.55480472 -35.47494304 0.0
529 1 45.42380568 -41.85941032 0.0
530 1 45.51216272 -27.25715472 0.0
531 1 -43.65339672 -31.219682 0.0
532 1 37.15991296 25.04507728 0.0
533 1 30.84197608 -20.29690768 0.0
534 1 35.81179696 55.51121496 0.0
535 1 -2.23063592 43.18103088 0.0
536 1 -46.0746364 -4.36462768 0.0
537 1 13.97558592 39.15279024 0.0
538 1 -26.11073088 -22.5946576 0.0
539 1 -24.46439528 -33.15583336 0.0
540 1 31.70850536 1.31088232 0.0
541 1 -7.75009128 -10.746994 0.0
542 1 -18.59793136 30.1464416 0.0
543 1 53.98440064 -34.09846408 0.0
544 1 -21.02442344 -52.377784856 0.0
545 1 18.02588664 -29.69601912 0.0
546 1 -31.77620296 -55.948191296 0.0
547 1 8.37571048 11.86832304 0.0
548 1 -52.75037844 18.9197284 0.0
549 1 50.40529856 -36.64739544 0.0
550 1 8.89733216 24.04583736 0.0
551 1 19.53577656 -57.5766197136 0.0
552 1 -41.74117296 -17.19098848 0.0
553 1 1.36784168 -10.39368256 0.0
554 1 -37.27639952 43.0714308 0.0
555 1 37.25095456 16.43312552 0.0
556 1 -12.26050224 57.59735152 0.0
557 1 -58.3116658978 -28.52076544 0.0
558 1 50.52598704 -11.35008624 0.0
559 1 2.90469392 5.64329528 0.0
560 1 14.67322136 41.41599104 0.0
561 1 44.16941584 -3.36690512 0.0
562 1 35.83093904 -25.49584992 0.0
563 1 -51.286931408 -27.75286456 0.0
564 1 52.76514352 -35.76090704 0.0
565 1 42.95867928 -17.57137896 0.0
566 1 26.5893996 6.06582168 0.0
567 1 -15.5856216 -36.18646816 0.0
568 1 -2.61055952 -47.115918864 0.0
569 1 36.56872616 -49.352507504 0.0
570 1 -49.515040104 -16.33589776 0.0
571 1 -30.14562456 -52.033670952 0.0
572 1 11.52049744 48.81603904 0.0
573 1 16.82682208 -26.11341544 0.0
574 1 20.78339664 -18.97248584 0.0
575 1 -11.9795572 -48.6920824 0.0
576 1 19.84928648 1.26629528 0.0
577 1 43.94414624 -19.50227792 0.0
578 1 -7.29710096 19.31459216 0.0
579 1 -23.35182024 -43.09792624 0.0
580 1 54.24060104 55.66283424 0.0
581 1 -23.04683088 -13.73514272 0.0
582 1 -58.1111891432 -15.6661584 0.0
583 1 -54.692179048 54.17418736 0.0
584 1 53.77033616 -30.87454096 0.0
585 1 25.07880936 -6.68035248 0.0
586 1 10.71536288 1.23629824 0.0
587 1 58.25716968 2.1616544 0.0
588 1 58.29848856 -34.24646504 0.0
589 1 0.91111632 -27.45090992 0.0
590 1 -15.70315864 -14.0204064 0.0
591 1 12.96210616 37.33954504 0.0
592 1 1.73375888 -14.15533472 0.0
593 1 50.157502 -48.215969848 0.0
594 1 7.61913144 5.87906968 0.0
595 1 -7.2780756 -24.42447704 0.0
596 1 -9.71787376 -16.65267584 0.0
597 1 51.19374216 -26.62476576 0.0
598 1 -21.6556452 58.07088456 0.0
599 1 27.69287048 -52.017703656 0.0
600 1 48.56474088 27.69310392 0.0
601 1 30.97538704 42.33527776 0.0
602 1 12.74325616 -26.92356896 0.0
603 1 -56.18124612 -36.93767808 0.0
604 1 -0.10236344 -37.4630348 0.0
605 1 -9.9282032 -47.641940888 0.0
606 1 36.73925408 -9.95598256 0.0
607 1 43.36474816 -26.4265752 0.0
608 1 3.48514248 -56.612421472 0.0
609 1 8.87492192 50.58341328 0.0
610 1 -44.3512656 -22.36191792 0.0
611 1 44.89097888 12.1896532 0.0
612 1 -11.86843976 -17.57616448 0.0
613 1 45.97215624 -30.46987272 0.0
614 1 38.45678888 -11.40436104 0.0
615 1 -48.938571696 8.96969856 0.0
616 1 -27.61606872 9.19415112 0.0
617 1 -0.91928672 -8.06500184 0.0
618 1 50.79759448 -2.06874528 0.0
619 1 -55.42921916 -40.33796512 0.0
620 1 19.5249216 -31.056274 0.0
621 1 41.237176 -44.1481728 0.0
622 1 53.65641744 -14.97482584 0.0
623 1 -32.48457664 -18.68091928 0.0
624 1 -37.83992368 -25.73185776 0.0
625 1 7.27714184 -17.84975616 0.0
626 1 -42.44744568 -30.97095168 0.0
627 1 -36.02189296 -56.968510848 0.0
628 1 -4.68000512 -42.42970424 0.0
629 1 -29.5056488 -41.09431072 0.0
630 1 -14.70987144 -2.80664912 0.0
631 1 -55.158242008 -58.060910836 0.0
632 1 1.86180072 54.64842072 0.0
633 1 -29.39383104 -52.850395808 0.0
634 1 -54.562001232 -42.60069904 0.0
635 1 24.69771856 -7.81335352 0.0
636 1 -8.62805912 -22.37043848 0.0
637 1 -17.06703184 -39.10481832 0.0
638 1 53.9077156 2.2404404 0.0
639 1 -30.37649672 20.7522324 0.0
640 1 -54.958288976 46.2888176 0.0
641 1 -42.9459568 -28.8555184 0.0
642 1 54.4475456 -23.16028272 0.0
643 1 -48.582669072 -20.71149712 0.0
644 1 23.04391288 26.81431904 0.0
645 1 -39.77070592 1.84674384 0.0
646 1 9.40167928 -26.93395704 0.0
647 1 33.23823768 -10.26634104 0.0
648 1 -32.61927152 6.9074896 0.0
649 1 -46.793619928 11.18971296 0.0
650 1 -17.31447824 -12.45192304 0.0
651 1 52.02011976 14.10572872 0.0
652 1 38.18891648 -31.27827544 0.0
653 1 54.67363224 -19.63650592 0.0
654 1 2.95219896 49.2260764 0.0
655 1 -43.31619264 17.21001384 0.0
656 1 50.81848736 51.4408384 0.0
657 1 34.25125056 1.9498076 0.0
658 1 5.92073872 -16.0910192 0.0
659 1 28.9605664 -35.0848648 0.0
660 1 38.09904208 -42.35815488 0.0
661 1 -44.45327888 -5.18505256 0.0
662 1 -20.504786 -44.68660216 0.0
663 1 10.52429224 -26.1178508 0.0
664 1 -40.6028028 -28.48890088 0.0
665 1 -22.45681128 -48.01475624 0.0
666 1 -16.7271432 53.32388216 0.0
667 1 -55.2628348 -37.916492 0.0
668 1 44.73795896 -13.43470544 0.0
669 1 -0.04365328 27.60241248 0.0
670 1 -57.4491463 10.69423656 0.0
671 1 -53.168329416 -3.24878448 0.0
672 1 13.18107288 -38.93849232 0.0
673 1 34.34217544 -15.41964576 0.0
674 1 -9.34775464 -17.87636832 0.0
675 1 37.73289144 -10.5462356 0.0
676 1 49.02543472 -23.31201872 0.0
677 1 -53.028148696 28.36260984 0.0
678 1 54.94092104 27.71376336 0.0
679 1 19.21409624 -43.81306968 0.0
680 1 24.42202592 26.99231704 0.0
681 1 -3.92471 -28.53360464 0.0
682 1 -20.6343452 -15.92597712 0.0
683 1 -50.997617544 -42.3886188 0.0
684 1 -14.21684616 2.67650632 0.0
685 1 -45.85088416 -17.1823512 0.0
686 1 -3.20139616 28.28043896 0.0
687 1 24.11073368 39.08871096 0.0
688 1 -57.3777159944 16.3944912 0.0
689 1 7.95400112 -29.73943896 0.0
690 1 40.81546664 5.75476288 0.0
691 1 43.5027112 -6.91566 0.0
692 1 43.53317512 -38.20724152 0.0
693 1 52.5234164 -10.52207456 0.0
694 1 34.02247936 48.92703976 0.0
695 1 -50.243571328 -51.969673376 0.0
696 1 53.2990208 -24.99873944 0.0
697 1 44.95179 -9.70024904 0.0
698 1 -36.8578416 26.84933504 0.0
699 1 31.96715688 -37.25317224 0.0
700 1 -5.61201432 25.78659944 0.0
701 1 -53.608830696 -1.06075136 0.0
702 1 32.56394624 -35.0731928 0.0
703 1 23.62424472 15.24981816 0.0
704 1 34.56277624 -39.52115856 0.0
705 1 32.50313512 13.09388304 0.0
706 1 14.75527552 -55.623627992 0.0
707 1 -53.292122648 -15.67853072 0.0
708 1 -31.0411004 46.03156672 0.0
709 1 2.42555832 29.96809344 0.0
710 1 23.7099172 -26.17982912 0.0
711 1 -45.20752352 -41.49559408 0.0
712 1 -19.87414784 -47.979016576 0.0
713 1 -4.96620256 -16.20587168 0.0
714 1 31.15700336 14.21661272 0.0
715 1 53.5429656 15.49504688 0.0
716 1 45.85718704 -13.22624352 0.0
717 1 21.49608896 -2.27989176 0.0
718 1 -53.671369272 -23.40376064 0.0
719 1 34.66222168 15.12130944 0.0
720 1 -18.91085768 -17.50893376 0.0
721 1 17.46119528 -24.10781568 0.0
722 1 -46.06063 8.37687768 0.0
723 1 -44.58552264 -52.97728212 0.0
724 1 51.68408288 12.92709016 0.0
725 1 37.7805132 11.62169368 0.0
726 1 23.9503604 -41.30580736 0.0
727 1 -37.83969024 -45.67988936 0.0
728 1 47.76894392 1.71379976 0.0
729 1 -27.86013024 2.05123728 0.0
730 1 39.83665272 -3.64995112 0.0
731 1 -22.12065768 17.87765224 0.0
732 1 42.6296456 -12.28372952 0.0
733 1 11.9176956 -41.49197576 0.0
734 1 35.77969896 21.88651736 0.0
735 1 6.32003784 -19.8820848 0.0
736 1 -42.73504376 -21.03597872 0.0
737 1 32.31790048 -10.93269552 0.0
738 1 -36.56639176 2.94472888 0.0
739 1 -47.335690952 -18.8012576 0.0
740 1 44.63454504 -53.422557248 0.0
741 1 10.15510688 55.54798176 0.0
742 1 26.02692592 3.80250416 0.0
743 1 -20.6104176 -18.99127776 0.0
744 1 4.11939896 5.66955728 0.0
745 1 -55.889726248 12.08565568 0.0
746 1 6.13690416 23.98094104 0.0
747 1 17.21293184 -40.37216408 0.0
748 1 24.89124032 -46.21026504 0.0
749 1 -29.35076136 8.16234632 0.0
750 1 50.97874392 2.7785196 0.0
751 1 -8.16969968 25.88522784 0.0
752 1 14.56992416 20.62454072 0.0
753 1 47.33066032 -8.90643632 0.0
754 1 -33.8447148 -41.57321288 0.0
755 1 41.20075936 -33.8026956 0.0
756 1 -54.02105072 -13.23301328 0.0
757 1 36.1003288 23.01169816 0.0
758 1 -54.755873152 -43.80524944 0.0
759 1 15.78089416 48.6885808 0.0
760 1 -46.11350416 -20.77009056 0.0
761 1 -0.94986736 -6.6810528 0.0
762 1 9.74915472 -22.3384572 0.0
763 1 51.0947636 -0.92197128 0.0
764 1 -55.970426456 -28.30658424 0.0
765 1 -45.07854792 -29.58373448 0.0
766 1 -43.3929944 -44.45549656 0.0
767 1 25.56132984 -4.29086064 0.0
768 1 4.41505072 -9.48770192 0.0
769 1 -42.5625316 3.78219488 0.0
770 1 -9.62344728 -2.84540016 0.0
771 1 49.56187984 -35.86898976 0.0
772 1 10.85285904 -47.35295384 0.0
773 1 -46.49809656 -27.47565456 0.0
774 1 24.24519512 -1.05783336 0.0
775 1 29.16050776 46.24493088 0.0
776 1 35.6095212 -17.39384784 0.0
777 1 -18.87117288 -22.83440048 0.0
778 1 16.27205192 -10.43978696 0.0
779 1 38.88456768 -32.19149272 0.0
780 1 41.51006736 -52.577621168 0.0
781 1 44.38768224 -42.41266312 0.0
782 1 -18.5549784 1.33364272 0.0
783 1 -26.5047776 -23.7034976 0.0
784 1 -33.75565744 -8.97016544 0.0
785 1 -51.346680376 -2.02415824 0.0
786 1 56.64608352 -1.34834944 0.0
787 1 -28.99651616 11.11442856 0.0
788 1 -36.61868232 22.60247784 0.0
789 1 -17.14079888 -35.47984528 0.0
790 1 -58.0003483296 -16.88634928 0.0
791 1 21.55573288 -11.091318 0.0
792 1 -19.21748112 -3.72710304 0.0
793 1 -48.116267624 -7.10112808 0.0
794 1 55.10129432 29.96832688 0.0
795 1 31.41857288 -7.72312896 0.0
796 1 13.265228 53.52814216 0.0
797 1 24.93851192 3.9492212 0.0
798 1 14.44573408 -37.34363024 0.0
799 1 -43.8674612 -16.43347568 0.0
800 1 -34.15542344 -33.9474284 0.0
801 1 44.87101976 -30.8625188 0.0
802 1 -19.88255168 -57.6210305064 0.0
803 1 49.38154744 -20.8911292 0.0
804 1 -40.17175584 -25.28260248 0.0
805 1 -27.69578848 -53.941762824 0.0
806 1 42.21680696 -26.29841664 0.0
807 1 32.8543456 -13.2202908 0.0
808 1 34.92425808 -47.778363224 0.0
809 1 40.61704264 -19.9130156 0.0
810 1 -10.45589432 -9.01872096 0.0
811 1 52.0734608 26.71393984 0.0
812 1 -19.19273648 -47.049668592 0.0
813 1 32.098 19.7420208 0.0
814 1 27.88452472 -35.47739416 0.0
815 1 -35.25340848 -14.18941696 0.0
816 1 -15.97803424 -40.00309544 0.0
817 1 -0.99760584 56.69020368 0.0
818 1 -45.11683208 -32.89192944 0.0
819 1 50.47509712 -52.498286584 0.0
820 1 -40.17397352 -30.48294536 0.0
821 1 33.16972304 -20.66726024 0.0
822 1 2.61767944 -29.83083072 0.0
823 1 -7.17116008 37.72051912 0.0
824 1 35.51427768 -34.65451816 0.0
825 1 42.5479416 28.70588336 0.0
826 1 27.77329056 34.4843404 0.0
827 1 -6.1768224 -3.42036288 0.0
828 1 29.58583544 -23.41916768 0.0
829 1 -43.05754112 -19.17452816 0.0
830 1 -51.771774616 -28.88808328 0.0
831 1 24.8222588 -26.49824128 0.0
832 1 23.15736472 -52.246428168 0.0
833 1 51.95802472 -3.05818072 0.0
834 1 46.55692344 1.52249568 0.0
835 1 -31.54603112 -47.854021128 0.0
836 1 7.56719104 2.87434672 0.0
837 1 26.01186904 -0.03279832 0.0
838 1 1.79760472 -30.77871384 0.0
839 1 -23.83737544 48.44323536 0.0
840 1 34.47780408 -44.83553688 0.0
841 1 -20.15357552 -30.22686168 0.0
842 1 -51.190112168 -30.0040432 0.0
843 1 -30.43100496 52.58329376 0.0
844 1 23.67326712 34.52554256 0.0
845 1 20.51692488 -50.267603976 0.0
846 1 41.7869272 19.17849664 0.0
847 1 15.00820776 -42.98657536 0.0
848 1 39.93819912 -9.80377968 0.0
849 1 20.31604976 23.27443488 0.0
850 1 -16.6133412 -1.82631784 0.0
851 1 -31.15887088 -25.9620296 0.0
852 1 -15.90053216 -41.93726256 0.0
853 1 57.59700136 -16.57669112 0.0
854 1 29.12525832 16.57762488 0.0
855 1 51.53748256 -38.69349704 0.0
856 1 -44.04300808 -43.55535192 0.0
857 1 -48.1376624 -45.6853752 0.0
858 1 38.88083264 31.88195128 0.0
859 1 7.70328656 24.06754728 0.0
860 1 9.00681552 29.39791624 0.0
861 1 29.1035484 -7.69896792 0.0
862 1 -25.06982192 -4.04761616 0.0
863 1 28.64343816 30.0682392 0.0
864 1 15.55854256 28.29689648 0.0
865 1 1.32500544 27.86958456 0.0
866 1 -44.88315864 -42.60303344 0.0
867 1 14.59373504 -7.14839968 0.0
868 1 32.35700168 53.3521284 0.0
869 1 -28.58204344 1.05759992 0.0