# LAMMPS data file written by Ovito 3.7.11
9945 atoms
1 atom types
-58.36 58.36 xlo xhi
-58.36 58.36 ylo yhi
-0.5 0.5 zlo zhi

Atoms  # atomic

1 1 -8.7242364 47.83045536 0.0
2 1 -49.9821302 -57.3833372296 0.0
3 1 18.45553296 -39.49559688 0.0
4 1 -27.09794864 -44.94665432 0.0
5 1 -13.33420952 36.75244344 0.0
6 1 2.5614204 38.9681392 0.0
7 1 -39.24254792 4.34863704 0.0
8 1 53.51518624 53.1712124 0.0
9 1 -2.77630192 18.49066568 0.0
10 1 -47.000132624 42.21447256 0.0
11 1 -54.37967292 -14.8082664 0.0
12 1 -17.29743712 22.92392472 0.0
13 1 -31.58524904 39.85614496 0.0
14 1 29.06946616 -7.15563632 0.0
15 1 -21.03504496 40.27610352 0.0
16 1 -54.761207256 -32.47220432 0.0
17 1 31.58489888 23.25377544 0.0
18 1 -15.96589536 9.649826 0.0
19 1 20.69142128 -51.547555496 0.0
20 1 22.9979252 32.08235952 0.0
21 1 38.21342768 -1.95225872 0.0
22 1 -50.06330896 1.27621648 0.0
23 1 -35.141474 -54.868099432 0.0
24 1 -11.68168776 56.67829824 0.0
25 1 28.02435528 6.90620568 0.0
26 1 15.2383796 52.14781144 0.0
27 1 -53.57658096 3.1701152 0.0
28 1 34.55297176 48.90264528 0.0
29 1 19.55573568 40.09472064 0.0
30 1 -9.66348224 -0.52745768 0.0
31 1 16.72620944 41.78949504 0.0
32 1 1.53276704 11.63686728 0.0
33 1 38.56125328 8.64323272 0.0
34 1 28.81653392 -13.36397312 0.0
35 1 -48.122873976 23.9999664 0.0
36 1 -58.2378571888 47.75155264 0.0
37 1 35.79907448 38.16020336 0.0
38 1 -51.022992472 51.74711168 0.0
39 1 -50.867077896 57.43954608 0.0
40 1 -15.3142476 16.93934016 0.0
41 1 -0.73556944 -10.7131452 0.0
42 1 38.28544392 27.2582052 0.0
43 1 47.945658 -36.79574656 0.0
44 1 -8.58487272 16.79320672 0.0
45 1 57.25372784 28.13138752 0.0
46 1 13.93613456 27.77224008 0.0
47 1 18.98053952 -21.56483704 0.0
48 1 30.66946392 22.23527672 0.0
49 1 -7.8441676 -20.5929096 0.0
50 1 50.39701144 -41.44528776 0.0
51 1 16.09755552 -39.43863752 0.0
52 1 -19.58689992 58.22997392 0.0
53 1 19.09504184 1.22754424 0.0
54 1 8.26821136 -43.37525296 0.0
55 1 -52.587810824 19.3831068 0.0
56 1 37.07879256 -14.27065408 0.0
57 1 -5.7000212 41.80595256 0.0
58 1 54.49586768 -31.06829616 0.0
59 1 -3.86354872 -41.9334108 0.0
60 1 21.10846184 -25.69439064 0.0
61 1 32.35139912 45.28129056 0.0
62 1 39.72285072 53.89709408 0.0
63 1 -40.02258768 9.80634752 0.0
64 1 39.14637064 -48.270886608 0.0
65 1 -36.019792 39.10948712 0.0
66 1 16.04864984 6.98639232 0.0
67 1 16.26049664 35.39113808 0.0
68 1 50.30702032 -57.141606608 0.0
69 1 37.6060168 19.65237984 0.0
70 1 -22.03977072 -38.09308936 0.0
71 1 -1.6696796 21.52678632 0.0
72 1 -52.512538096 35.29344344 0.0
73 1 47.30241408 -26.44093176 0.0
74 1 9.01451904 -18.4044096 0.0
75 1 13.09785152 -29.92560736 0.0
76 1 17.34529232 -52.604023232 0.0
77 1 -47.132843264 32.27226296 0.0
78 1 -37.66192568 19.19682168 0.0
79 1 -19.80003064 -9.69861496 0.0
80 1 37.72203648 20.89147936 0.0
81 1 45.7729152 -57.6095405896 0.0
82 1 -51.576735496 42.7796308 0.0
83 1 1.71251584 40.67411872 0.0
84 1 -19.89562432 -17.20943024 0.0
85 1 28.04443112 56.96729696 0.0
86 1 -29.74270712 36.99428728 0.0
87 1 -29.02231128 29.70220528 0.0
88 1 -1.8634348 -42.8636692 0.0
89 1 33.80479656 41.96095672 0.0
90 1 51.54950472 -46.843155896 0.0
91 1 -45.66121416 -31.9853652 0.0
92 1 -19.4344636 16.42122008 0.0
93 1 19.16857544 6.97203576 0.0
94 1 -54.963062824 49.62455848 0.0
95 1 15.78206136 -6.64090112 0.0
96 1 -26.43801376 -48.92978268 0.0
97 1 -33.8096988 47.69797816 0.0
98 1 -30.82621888 -33.6667168 0.0
99 1 -11.87485936 -1.63489704 0.0
100 1 51.15475768 46.60757992 0.0
101 1 9.41370144 -13.04591112 0.0
102 1 -38.54899768 53.04422104 0.0
103 1 -7.93999472 31.48545344 0.0
104 1 -41.561074 49.65759024 0.0
105 1 50.08887064 2.88928688 0.0
106 1 -39.52407656 52.26406456 0.0
107 1 -31.65749872 11.21375728 0.0
108 1 -36.00368464 47.44037712 0.0
109 1 -25.46456896 4.1371404 0.0
110 1 -30.93745304 -37.1192944 0.0
111 1 -41.14356656 -24.76378208 0.0
112 1 33.20415544 46.19509144 0.0
113 1 14.90479384 -21.0136852 0.0
114 1 23.10402368 12.48565512 0.0
115 1 -28.67145096 15.12831264 0.0
116 1 23.54440824 28.58192672 0.0
117 1 -46.994074856 27.86269808 0.0
118 1 -23.28692392 50.46575952 0.0
119 1 -39.18395448 -30.23071344 0.0
120 1 -28.47711216 -49.997315472 0.0
121 1 17.22180256 -39.591424 0.0
122 1 -50.529220184 21.71260456 0.0
123 1 36.97502848 -2.1779952 0.0
124 1 50.23442048 22.3407916 0.0
125 1 31.1239716 -55.190946952 0.0
126 1 -18.72807416 33.97415728 0.0
127 1 16.6273476 28.4201528 0.0
128 1 -40.68590744 -14.5999212 0.0
129 1 32.04115736 -3.83215104 0.0
130 1 17.91523608 -20.68009944 0.0
131 1 1.29944376 -42.84429368 0.0
132 1 18.87700888 -44.85351176 0.0
133 1 35.08288056 -41.1823176 0.0
134 1 -53.475454752 49.60436592 0.0
135 1 -37.17263544 41.13026048 0.0
136 1 39.96119296 11.46213744 0.0
137 1 -8.8088584 36.80555104 0.0
138 1 -6.8269528 27.36978952 0.0
139 1 -34.87932088 22.74802768 0.0
140 1 -53.026526288 -55.839046424 0.0
141 1 8.79228416 48.40051584 0.0
142 1 32.37672736 38.81838744 0.0
143 1 45.14542848 50.31320648 0.0
144 1 -45.68794304 -21.2646332 0.0
145 1 -38.2905796 -41.957922 0.0
146 1 12.48425448 5.13241184 0.0
147 1 39.22270552 -25.16226416 0.0
148 1 -43.97962912 51.861614 0.0
149 1 -9.32347688 -51.74384352 0.0
150 1 52.69872984 0.11835408 0.0
151 1 31.03829912 -13.82303288 0.0
152 1 -36.94794944 -7.02689416 0.0
153 1 -51.459373536 50.55061496 0.0
154 1 38.56743944 7.29920192 0.0
155 1 -44.6529868 2.03886496 0.0
156 1 -34.42271224 2.7201596 0.0
157 1 37.43688952 18.25839288 0.0
158 1 -6.95861296 51.657354 0.0
159 1 -39.37805984 43.6842108 0.0
160 1 -40.17023848 -24.16524192 0.0
161 1 52.95971576 11.23861864 0.0
162 1 1.40028984 -37.51777648 0.0
163 1 -22.124276 -52.319086368 0.0
164 1 23.56961976 47.03454168 0.0
165 1 53.54856816 14.29201384 0.0
166 1 26.64145672 -41.51275192 0.0
167 1 6.91986192 -7.82280784 0.0
168 1 -50.338558064 53.9491512 0.0
169 1 48.7288492 -15.89154472 0.0
170 1 -9.74530296 -42.0285376 0.0
171 1 -50.46278316 19.04590272 0.0
172 1 -22.74545984 30.17830616 0.0
173 1 7.16859224 9.51653176 0.0
174 1 -50.037945704 -24.2357408 0.0
175 1 24.73086704 -24.68592984 0.0
176 1 13.27771704 23.97860664 0.0
177 1 13.79525352 26.6699364 0.0
178 1 -44.24131536 34.7043576 0.0
179 1 23.57498888 -25.13180024 0.0
180 1 -14.10141008 -2.68561048 0.0
181 1 1.16696656 -18.02938824 0.0
182 1 8.16713184 -58.2702909922 0.0
183 1 -0.41482288 39.53271384 0.0
184 1 -23.24432112 20.98182064 0.0
185 1 -30.33867944 -54.990597072 0.0
186 1 -23.33734696 -14.35095744 0.0
187 1 20.9868396 -0.8380496 0.0
188 1 -2.96865648 -49.521996616 0.0
189 1 -18.78736792 -48.158543608 0.0
190 1 38.92355216 -15.92049128 0.0
191 1 -31.15280144 -43.59702096 0.0
192 1 9.85163488 -6.53130104 0.0
193 1 -47.30947564 -30.1738708 0.0
194 1 -4.61639272 50.60290552 0.0
195 1 31.12700632 35.4437788 0.0
196 1 -29.30617432 58.32451712 0.0
197 1 -15.97791752 -4.3110532 0.0
198 1 8.52242752 26.56839 0.0
199 1 -10.42928216 -16.72387504 0.0
200 1 39.86898416 0.9606056 0.0
201 1 -45.33451488 29.46094504 0.0
202 1 49.16584888 30.33225984 0.0
203 1 -12.50876568 15.95725808 0.0
204 1 46.1557568 -14.02577552 0.0
205 1 -9.68390824 -17.57581432 0.0
206 1 -38.95144824 -2.60589072 0.0
207 1 26.83030968 2.10422816 0.0
208 1 26.30787096 -19.8902552 0.0
209 1 -18.63691584 31.71364104 0.0
210 1 29.77562216 -44.662908 0.0
211 1 11.36082448 -30.60445088 0.0
212 1 -13.40249072 -8.47410544 0.0
213 1 16.63446752 10.46032968 0.0
214 1 27.91849024 -55.482863672 0.0
215 1 19.63335448 28.79575776 0.0
216 1 3.91782352 27.22272232 0.0
217 1 38.3215104 -27.53214704 0.0
218 1 47.89033272 -23.21712536 0.0
219 1 -48.15902216 -55.786510752 0.0
220 1 -41.3019556 -55.24135832 0.0
221 1 19.65984992 -36.15857208 0.0
222 1 -13.41556336 3.70224168 0.0
223 1 -46.62835608 -15.37972752 0.0
224 1 -15.50134976 -15.84555704 0.0
225 1 -42.67715064 -47.915474208 0.0
226 1 -9.72697792 -47.368956152 0.0
227 1 57.48098168 4.54437648 0.0
228 1 -27.19190824 -58.076154468 0.0
229 1 -10.0052384 32.89379696 0.0
230 1 39.5645784 -19.05955896 0.0
231 1 -49.79105956 -16.29924768 0.0
232 1 56.72790424 -10.1231256 0.0
233 1 -48.220253472 -35.0486816 0.0
234 1 -41.9007292 39.33207216 0.0
235 1 47.04948184 44.16182904 0.0
236 1 22.58053448 -48.65379824 0.0
237 1 34.11620552 -57.251294228 0.0
238 1 -41.86209488 41.73066816 0.0
239 1 -29.33010192 53.38866176 0.0
240 1 3.55669184 30.00252584 0.0
241 1 31.64290872 37.66577744 0.0
242 1 -27.858146 54.92212912 0.0
243 1 34.23409272 55.442 0.0
244 1 -3.17735184 46.8263132 0.0
245 1 4.89150176 21.57545856 0.0
246 1 19.34423904 -52.186807592 0.0
247 1 12.4125884 2.29623256 0.0
248 1 -15.48360832 -37.776428 0.0
249 1 -4.51437944 -29.88452192 0.0
250 1 12.480286 -30.86473648 0.0
251 1 -41.7396556 38.09052152 0.0
252 1 5.987736 -44.34146112 0.0
253 1 42.52623168 -42.47709256 0.0
254 1 52.11594688 37.76732384 0.0
255 1 12.52919168 41.87948616 0.0
256 1 47.38505184 -0.32588224 0.0
257 1 -22.32363376 -35.87844408 0.0
258 1 -14.32749672 -12.67264056 0.0
259 1 5.76643488 -25.56564848 0.0
260 1 40.20046896 43.30031872 0.0
261 1 -0.89185752 -47.668366296 0.0
262 1 32.18857472 33.06094 0.0
263 1 -52.281350792 15.28261648 0.0
264 1 31.51626752 -48.079921016 0.0
265 1 -1.1391872 -41.3725712 0.0
266 1 36.45994312 -51.927584144 0.0
267 1 44.02234864 -48.040656408 0.0
268 1 11.23850192 -3.90335024 0.0
269 1 -6.76322368 -27.60673112 0.0
270 1 -1.19626328 36.38127384 0.0
271 1 11.7793824 -7.36841688 0.0
272 1 -23.87717696 46.96217528 0.0
273 1 -28.13780712 -29.8359664 0.0
274 1 29.0288476 -8.88227528 0.0
275 1 28.5368728 -36.19218744 0.0
276 1 12.90584712 -27.67011008 0.0
277 1 13.12948264 38.69314688 0.0
278 1 24.68966488 50.70701976 0.0
279 1 -49.170541024 -47.022075984 0.0
280 1 45.51659808 -34.75232952 0.0
281 1 35.46163696 39.28830216 0.0
282 1 1.37414456 54.26266112 0.0
283 1 48.52762392 0.18395072 0.0
284 1 19.93834384 -11.7980576 0.0
285 1 -38.2497276 39.14275232 0.0
286 1 44.19871256 0.13551192 0.0
287 1 -27.13296464 24.06462928 0.0
288 1 27.44367328 25.78531552 0.0
289 1 45.93153768 -29.1572396 0.0
290 1 54.79863936 40.34391784 0.0
291 1 16.9792584 -32.2631588 0.0
292 1 -14.5508988 3.40985808 0.0
293 1 -51.595679152 -37.3836652 0.0
294 1 -26.09415664 -17.83458256 0.0
295 1 -4.81446656 24.89660944 0.0
296 1 -55.261889368 52.66313024 0.0
297 1 -40.45491856 -46.938212664 0.0
298 1 -38.58553104 -12.82904536 0.0
299 1 -41.86326208 11.35813992 0.0
300 1 10.6833816 -32.92986344 0.0
301 1 -3.19532672 45.36124376 0.0
302 1 -42.36982688 7.31612632 0.0
303 1 -7.15131768 -4.7014816 0.0
304 1 5.94933512 56.32592056 0.0
305 1 -14.13059008 -22.32643504 0.0
306 1 -0.40688592 -20.83837176 0.0
307 1 41.42766304 -12.33870464 0.0
308 1 13.43832376 13.50123584 0.0
309 1 33.90634296 56.86645088 0.0
310 1 -42.53311816 1.10043616 0.0
311 1 -45.2762716 -35.98734384 0.0
312 1 -14.1482148 -15.19005752 0.0
313 1 22.44665664 -11.60453584 0.0
314 1 -52.912887696 10.89219368 0.0
315 1 -43.26938792 -55.545098776 0.0
316 1 57.54797896 -32.10710416 0.0
317 1 -10.75551456 -18.00534392 0.0
318 1 -16.19466656 22.6734436 0.0
319 1 -42.22275968 -55.886399728 0.0
320 1 45.84808288 -31.48008432 0.0
321 1 -47.019274704 -6.480878 0.0
322 1 -13.95597696 -27.80690592 0.0
323 1 11.55796456 -25.7507664 0.0
324 1 -15.99425832 -10.0910276 0.0
325 1 9.55283168 -3.03798816 0.0
326 1 6.031506 -20.10980552 0.0
327 1 -35.92244752 -14.7744176 0.0
328 1 -45.65689552 -14.7259788 0.0
329 1 28.76879544 28.45773664 0.0
330 1 7.18890152 -2.08438576 0.0
331 1 52.05513576 -37.83151984 0.0
332 1 -42.70411296 37.22469256 0.0
333 1 37.00759336 -15.62612344 0.0
334 1 -4.58020952 -53.249811648 0.0
335 1 14.75667616 -35.23800144 0.0
336 1 55.44655208 -6.3273912 0.0
337 1 -42.22007512 16.21731024 0.0
338 1 48.5315924 7.61808096 0.0
339 1 8.3378932 -53.201419536 0.0
340 1 -40.4178016 4.74676896 0.0
341 1 -46.0261976 -10.13853264 0.0
342 1 -55.72288668 -7.1350936 0.0
343 1 0.1318936 -51.049312832 0.0
344 1 34.78862944 -25.32252072 0.0
345 1 -51.536887288 -29.22330312 0.0
346 1 39.81330872 5.6480808 0.0
347 1 -38.39784528 -20.8631164 0.0
348 1 36.43368112 -4.5503292 0.0
349 1 -26.56278744 49.89698296 0.0
350 1 56.94675424 3.53684944 0.0
351 1 55.06172624 4.70253208 0.0
352 1 -25.01099504 12.11822056 0.0
353 1 -7.7000184 17.44450432 0.0
354 1 19.7758696 45.16410368 0.0
355 1 25.4461272 -30.5742204 0.0
356 1 -52.892041504 -34.4312328 0.0
357 1 -37.1829068 11.9649672 0.0
358 1 -52.917591512 28.32864432 0.0
359 1 3.53334784 -47.099449672 0.0
360 1 26.52497016 -10.82671376 0.0
361 1 -33.38810616 10.09733048 0.0
362 1 39.41832824 -41.6941348 0.0
363 1 10.79554952 -43.17612864 0.0
364 1 28.7055332 52.20990648 0.0
365 1 -22.18345304 -48.69155716 0.0
366 1 -40.07966376 -2.73906824 0.0
367 1 -38.46927792 -17.0679656 0.0
368 1 56.76315368 26.16792368 0.0
369 1 -9.44101392 -1.69325704 0.0
370 1 53.22070168 -18.8952172 0.0
371 1 -10.58755448 -33.6830576 0.0
372 1 -37.81284464 -33.54742896 0.0
373 1 -56.94698768 -51.839658968 0.0
374 1 -44.71473168 31.50704664 0.0
375 1 -37.39323624 -49.086059088 0.0
376 1 35.50552368 -6.47247416 0.0
377 1 -38.3244284 44.00530752 0.0
378 1 43.3124576 -12.60937832 0.0
379 1 0.5129844 27.04600824 0.0
380 1 22.61613408 25.83340416 0.0
381 1 17.9287756 30.25335712 0.0
382 1 7.16754176 -28.81828472 0.0
383 1 1.9953284 -14.05087032 0.0
384 1 -52.776862208 52.31810592 0.0
385 1 55.62128192 45.66576624 0.0
386 1 -49.690925472 -33.34480304 0.0
387 1 -35.02148584 -8.9956104 0.0
388 1 -12.31991272 -43.82392464 0.0
389 1 -54.553107168 43.73720168 0.0
390 1 -19.48220208 29.88417176 0.0
391 1 0.6267864 -49.041530408 0.0
392 1 -5.60827928 -10.92160712 0.0
393 1 -47.73188532 25.10378744 0.0
394 1 -36.54549888 54.65892552 0.0
395 1 48.95096736 48.97186024 0.0
396 1 -16.63528456 37.54427192 0.0
397 1 -23.88219592 33.0002456 0.0
398 1 26.2742556 -4.97472312 0.0
399 1 17.92830872 2.7003172 0.0
400 1 -3.51128776 -18.05098144 0.0
401 1 -20.34464616 45.55511568 0.0
402 1 46.21423352 -17.79069584 0.0
403 1 -30.35502024 -52.780924064 0.0
404 1 25.16669952 -5.14291664 0.0
405 1 27.97521616 -43.55546864 0.0
406 1 -26.54761384 46.23407592 0.0
407 1 -51.185956936 22.93851472 0.0
408 1 -5.26395528 15.51687352 0.0
409 1 -17.66568872 -39.31269664 0.0
410 1 17.34424184 37.25107128 0.0
411 1 0.31724496 -35.32449096 0.0
412 1 -29.85545864 -48.599430064 0.0
413 1 -5.7116932 -21.11569848 0.0
414 1 -13.600798 -26.73203144 0.0
415 1 22.32164952 -32.98133696 0.0
416 1 -9.07427968 -46.39993504 0.0
417 1 -40.29617936 46.98808712 0.0
418 1 8.38539824 42.44254344 0.0
419 1 -30.65160576 -28.88388136 0.0
420 1 -26.52181872 42.6296456 0.0
421 1 -13.74809864 -45.65993024 0.0
422 1 -35.11136024 6.2544412 0.0
423 1 -12.41877456 33.9404252 0.0
424 1 44.85269472 -56.929573056 0.0
425 1 -55.75836956 -0.28666432 0.0
426 1 35.85953544 12.90199536 0.0
427 1 -3.74099272 16.92113184 0.0
428 1 56.83703744 -18.93992096 0.0
429 1 20.95194032 49.57401872 0.0
430 1 4.7633432 56.9844548 0.0
431 1 52.10976072 -21.92678576 0.0
432 1 -19.44753624 53.39718232 0.0
433 1 12.81492224 45.71910728 0.0
434 1 -21.3206588 -7.69523288 0.0
435 1 -11.95819744 -47.038696912 0.0
436 1 -38.0600576 46.81860968 0.0
437 1 48.11326792 -28.83485896 0.0
438 1 2.97822752 27.88242376 0.0
439 1 -31.54393016 14.43546272 0.0
440 1 -43.05789128 39.80513832 0.0
441 1 -22.96909536 -26.20924256 0.0
442 1 -23.36174144 51.8160932 0.0
443 1 33.44214752 54.27526688 0.0
444 1 -15.05209448 0.04306968 0.0
445 1 13.05349792 -16.78970512 0.0
446 1 -49.237841776 -7.45455624 0.0
447 1 -53.254807264 -44.24259928 0.0
448 1 54.40004056 -16.56793712 0.0
449 1 1.10335416 -22.6074968 0.0
450 1 -13.21643904 -13.01007808 0.0
451 1 -42.68637152 -33.7711812 0.0
452 1 7.98388144 30.72315512 0.0
453 1 -50.872680456 -25.05079656 0.0
454 1 3.2617404 -38.72314392 0.0
455 1 -34.7965664 0.31724496 0.0
456 1 16.70053104 -21.43352704 0.0
457 1 26.36272936 -32.5205264 0.0
458 1 31.5710092 34.00555496 0.0
459 1 27.2004288 21.82734032 0.0
460 1 39.58068576 48.52797408 0.0
461 1 -1.6119032 16.8963872 0.0
462 1 55.90502824 -45.57239024 0.0
463 1 52.31320368 15.65938864 0.0
464 1 16.19069808 -57.7480802264 0.0
465 1 12.60494296 -8.20576616 0.0
466 1 -7.19707192 35.60345176 0.0
467 1 29.16611032 -10.01445928 0.0
468 1 45.22047944 25.34177952 0.0
469 1 -44.53895136 7.51711816 0.0
470 1 -54.77617076 45.06255728 0.0
471 1 36.5782972 2.69109632 0.0
472 1 2.69343072 30.87022232 0.0
473 1 -1.57712064 -43.94659736 0.0
474 1 33.46058928 -35.75763888 0.0
475 1 -55.651442368 32.34474608 0.0
476 1 -16.78410256 36.28311232 0.0
477 1 -18.95089264 49.2009816 0.0
478 1 54.61305456 15.42443128 0.0
479 1 -54.75877948 7.6533304 0.0
480 1 23.01870136 -23.12071464 0.0
481 1 48.65169728 5.35079496 0.0
482 1 17.21468264 -19.80131456 0.0
483 1 -57.7748814728 46.38055952 0.0
484 1 25.59389472 -4.09500448 0.0
485 1 8.114958 -33.68457496 0.0
486 1 51.9660784 -18.8345228 0.0
487 1 16.52370024 11.7484516 0.0
488 1 -21.34201856 19.45827448 0.0
489 1 -54.06137748 10.79181448 0.0
490 1 53.9199712 48.71706048 0.0
491 1 25.44297576 29.65108192 0.0
492 1 40.05912104 -16.89183512 0.0
493 1 3.72838696 39.45381112 0.0
494 1 48.984466 2.35459256 0.0
495 1 -33.594934 -1.56451488 0.0
496 1 41.98791904 -31.464794 0.0
497 1 -28.22032816 -53.504938224 0.0
498 1 -17.02781392 3.67107744 0.0
499 1 -8.80757448 -44.28286768 0.0
500 1 34.58833792 -2.32552928 0.0
501 1 -57.7766999704 10.73894032 0.0
502 1 -49.077188368 -0.7977812 0.0
503 1 9.1164156 -10.9500868 0.0
504 1 -34.69280232 -29.80176744 0.0
505 1 58.3407412 -39.18675576 0.0
506 1 -18.92428048 -27.91405488 0.0
507 1 15.9748828 4.44283008 0.0
508 1 -8.89966656 -3.6247396 0.0
509 1 49.2826856 -34.73365432 0.0
510 1 -49.61177764 56.90578552 0.0
511 1 13.20768504 -47.549008424 0.0
512 1 11.95166112 46.44242112 0.0
513 1 47.33077704 28.41735152 0.0
514 1 -3.68391664 33.04786736 0.0
515 1 15.55258984 41.19527352 0.0
516 1 -8.35668512 -45.39310832 0.0
517 1 -43.74513864 27.5803524 0.0
518 1 -39.24114728 22.11178696 0.0
519 1 -32.42271504 8.06208384 0.0
520 1 -4.53784016 12.13491152 0.0
521 1 17.96776008 -55.171361336 0.0
522 1 -22.35806616 -25.223192 0.0
523 1 -10.80255272 0.08952424 0.0
524 1 -26.47711496 -54.928116856 0.0
525 1 19.0236092 2.40863392 0.0
526 1 -56.953687408 -28.51457928 0.0
527 1 -40.0367108 -21.84017952 0.0
528 1 -20.04339184 -52.178590504 0.0
529 1 0.91053272 53.13607968 0.0
530 1 -37.06653696 -53.716306472 0.0
531 1 43.79054272 -42.4697392 0.0
532 1 25.86807 33.65527824 0.0
533 1 -46.19800944 -4.26716648 0.0
534 1 -19.4642272 -41.99959104 0.0
535 1 34.04629024 17.90624864 0.0
536 1 12.93864544 -7.00623472 0.0
537 1 3.6200708 23.7361792 0.0
538 1 -32.1633632 -26.00801728 0.0
539 1 -38.17491008 -6.90036968 0.0
540 1 27.91778992 -38.58214616 0.0
541 1 -13.95142488 11.6959276 0.0
542 1 21.51161272 31.36453152 0.0
543 1 12.72201312 -28.7767324 0.0
544 1 1.99754608 53.32493264 0.0
545 1 1.65870792 48.55598688 0.0
546 1 -27.5044844 14.85810584 0.0
547 1 -36.26175256 -21.61631056 0.0
548 1 -43.07644976 -20.817012 0.0
549 1 27.20964968 -48.657626656 0.0
550 1 -1.40134032 37.52851472 0.0
551 1 13.98445664 -20.326788 0.0
552 1 28.19523336 8.13748496 0.0
553 1 2.47633152 24.36565016 0.0
554 1 32.47593936 12.61287992 0.0
555 1 -44.11677512 -2.98733168 0.0
556 1 -22.13863256 10.2264228 0.0
557 1 -45.43722848 -52.6929522 0.0
558 1 19.17254392 -31.66170064 0.0
559 1 30.13873808 -17.56320856 0.0
560 1 5.82934696 22.35164656 0.0
561 1 4.13095424 45.30241688 0.0
562 1 46.08198976 -39.54847104 0.0
563 1 -55.493555224 -14.52953904 0.0
564 1 -4.4423632 43.65129576 0.0
565 1 -8.03290384 55.73064856 0.0
566 1 -51.481141816 41.43513312 0.0
567 1 0.21558184 21.47332856 0.0
568 1 -23.64700512 -46.887672904 0.0
569 1 -55.291221104 -42.72815728 0.0
570 1 -21.3434192 54.54582384 0.0
571 1 -36.59603864 -4.91589624 0.0
572 1 -0.15593792 35.82008408 0.0
573 1 9.19123312 -26.14889832 0.0
574 1 -21.52701976 -4.8543848 0.0
575 1 -10.8736352 -35.68107056 0.0
576 1 25.12876552 12.64007568 0.0
577 1 15.77108968 -22.09883104 0.0
578 1 18.24426976 3.78861448 0.0
579 1 -44.476156 -26.72397776 0.0
580 1 52.47065896 -32.06975376 0.0
581 1 -20.81444416 8.36952432 0.0
582 1 -41.51041752 -52.887255984 0.0
583 1 49.9812548 48.56929296 0.0
584 1 -54.420384856 19.67303928 0.0
585 1 14.9308224 -12.41865784 0.0
586 1 16.67660344 13.08291136 0.0
587 1 -17.88722328 -34.35221336 0.0
588 1 -25.39815528 49.04539384 0.0
589 1 -2.71794192 -33.10482672 0.0
590 1 53.510284 -56.7005334 0.0
591 1 -16.9080592 -50.678528408 0.0
592 1 -1.48864688 29.1134696 0.0
593 1 36.72092904 -32.93114736 0.0
594 1 -4.1949168 37.8225324 0.0
595 1 24.36915176 -54.71098264 0.0
596 1 12.31699472 -35.12770104 0.0
597 1 -8.44912736 -39.13084688 0.0
598 1 54.67024736 29.85382456 0.0
599 1 3.6019792 41.83454896 0.0
600 1 29.48592312 33.40549744 0.0
601 1 18.44782944 -26.9022092 0.0
602 1 -11.53520416 -42.96649952 0.0
603 1 47.23028112 -48.839418056 0.0
604 1 -10.9401656 -4.59981848 0.0
605 1 16.86965832 -24.2158984 0.0
606 1 45.46092264 57.04129744 0.0
607 1 45.456604 8.84165672 0.0
608 1 18.77219432 -12.13759608 0.0
609 1 -0.09442648 -39.61103296 0.0
610 1 -17.85629248 -53.7501436 0.0
611 1 9.3195084 -57.9435383712 0.0
612 1 -49.540706832 -38.46005704 0.0
613 1 52.36421032 26.09380648 0.0
614 1 17.1263256 34.62755584 0.0
615 1 -10.93911512 -50.442508896 0.0
616 1 -49.88186772 -8.56596408 0.0
617 1 -16.16793768 26.53197336 0.0
618 1 52.79373992 -34.12647688 0.0
619 1 6.73310992 55.49592464 0.0
620 1 -27.2004288 33.4186868 0.0
621 1 -32.21472 -44.73212296 0.0
622 1 35.05323368 -37.52174496 0.0
623 1 25.75765288 -49.11991956 0.0
624 1 -51.559355888 -35.9981988 0.0
625 1 -36.76143088 -33.87167712 0.0
626 1 22.98123424 49.13118304 0.0
627 1 -31.97626104 6.90597224 0.0
628 1 -12.7913448 -51.731506216 0.0
629 1 -28.48878416 1.01978264 0.0
630 1 -36.10301336 0.27721 0.0
631 1 41.46081152 -30.31661936 0.0
632 1 0.1739128 -37.3492328 0.0
633 1 39.746078 20.89894944 0.0
634 1 -2.57274224 -52.71769684 0.0
635 1 -10.61440008 53.62151816 0.0
636 1 -29.80655296 8.34816456 0.0
637 1 28.56990456 -57.7247058792 0.0
638 1 40.76165872 8.50993848 0.0
639 1 -10.88577408 -10.92814344 0.0
640 1 42.76959288 50.28741136 0.0
641 1 -23.26533072 -19.75509344 0.0
642 1 57.11027896 -36.6576668 0.0
643 1 45.33649912 10.91296984 0.0
644 1 -10.88612424 8.57845312 0.0
645 1 -32.10231864 23.39232208 0.0
646 1 46.21656792 1.32372152 0.0
647 1 17.62390296 28.90279 0.0
648 1 -22.46521512 -2.66506776 0.0
649 1 45.40851536 23.16285056 0.0
650 1 55.36753264 -33.92886992 0.0
651 1 -56.423871984 36.71170816 0.0
652 1 45.138542 -28.2339844 0.0
653 1 -51.541427696 18.52031256 0.0
654 1 -17.77867368 -7.05000472 0.0
655 1 11.34728496 -58.0456473616 0.0
656 1 -23.30408176 -43.60986016 0.0
657 1 -47.447473696 -5.34145736 0.0
658 1 30.8321716 -48.9841742 0.0
659 1 40.528102 -47.083283952 0.0
660 1 33.70558456 -32.5963944 0.0
661 1 34.39376568 -7.10836472 0.0
662 1 -28.65849504 7.0854876 0.0
663 1 15.63300992 -4.02497248 0.0
664 1 -1.0574832 -34.15717424 0.0
665 1 -8.19035912 39.96586176 0.0
666 1 -18.94493992 26.066494 0.0
667 1 34.05376032 5.22076888 0.0
668 1 43.23857384 1.23571464 0.0
669 1 -9.00739912 -14.23178632 0.0
670 1 37.70266096 4.3676624 0.0
671 1 17.90216344 18.34908432 0.0
672 1 -52.61334916 50.47509712 0.0
673 1 -19.79547856 -21.65576192 0.0
674 1 -25.62365832 20.9944264 0.0
675 1 25.80865952 7.26500296 0.0
676 1 -0.42684504 44.67072824 0.0
677 1 26.29911696 52.80797976 0.0
678 1 20.42459936 23.6498064 0.0
679 1 42.26361168 -40.42748936 0.0
680 1 13.00937776 -52.180224584 0.0
681 1 -57.7866725272 41.33101888 0.0
682 1 30.59733096 56.24643424 0.0
683 1 -38.6039728 -38.98109512 0.0
684 1 32.90721976 30.76960968 0.0
685 1 42.243886 -17.82699576 0.0
686 1 -25.55164208 46.72079832 0.0
687 1 -19.43539736 0.48637224 0.0
688 1 15.1292464 53.34442488 0.0
689 1 -25.59599568 38.4574892 0.0
690 1 28.12881968 14.06032464 0.0
691 1 25.09118168 -28.0355604 0.0
692 1 21.2325352 -24.46252776 0.0
693 1 -35.007246 5.12902696 0.0
694 1 43.56538984 -37.10808928 0.0
695 1 33.22936696 57.76099296 0.0
696 1 -53.40996316 0.922088 0.0
697 1 13.6609088 25.23439712 0.0
698 1 -16.44444736 -8.96666384 0.0
699 1 12.44398608 40.62999856 0.0
700 1 -5.02561304 5.24411288 0.0
701 1 28.08411592 38.24809352 0.0
702 1 47.11262736 -41.5645756 0.0
703 1 -9.99870208 31.61466248 0.0
704 1 3.54093464 -19.99051768 0.0
705 1 -4.59106448 -34.45784496 0.0
706 1 13.86563568 -33.12373536 0.0
707 1 35.62037616 11.65729328 0.0
708 1 54.0606188 -50.00617452 0.0
709 1 -2.98231272 14.91027968 0.0
710 1 14.94377832 -31.11895264 0.0
711 1 34.26280584 -14.01608776 0.0
712 1 -32.60012944 -27.15339064 0.0
713 1 14.53350752 3.02876728 0.0
714 1 18.30671496 55.23587248 0.0
715 1 -52.90322328 36.33108424 0.0
716 1 2.11134808 -50.255616832 0.0
717 1 -1.52459664 -58.2405709288 0.0
718 1 35.23029792 -19.33676896 0.0
719 1 -16.7393988 35.06397192 0.0
720 1 -32.35513416 -42.47837648 0.0
721 1 16.43452616 -38.39889576 0.0
722 1 -40.42375432 0.45264016 0.0
723 1 47.26389648 -1.71800168 0.0
724 1 -7.28239424 -48.009375448 0.0
725 1 34.76902048 54.4084444 0.0
726 1 -2.72506184 29.87144928 0.0
727 1 -23.15211232 27.09701488 0.0
728 1 26.63305288 6.38890264 0.0
729 1 -42.52646512 -49.11355832 0.0
730 1 -33.186414 53.37815696 0.0
731 1 -51.48711788 6.5666672 0.0
732 1 -48.73842024 3.32033384 0.0
733 1 7.31974464 18.94622384 0.0
734 1 -24.41934136 20.38596504 0.0
735 1 -49.373307008 19.33478472 0.0
736 1 -37.36872504 -24.94726592 0.0
737 1 -0.00245112 10.56864584 0.0
738 1 18.34184768 52.20932288 0.0
739 1 25.75765288 -13.1537604 0.0
740 1 -15.26219048 51.66342344 0.0
741 1 6.90877352 49.85356312 0.0
742 1 -16.47817944 -0.61091248 0.0
743 1 7.04125072 -14.3530584 0.0
744 1 -0.85929264 -6.63214712 0.0
745 1 -31.9153332 26.98928232 0.0
746 1 50.85595448 34.274828 0.0
747 1 -36.28988208 -45.57705904 0.0
748 1 -14.86510904 -10.32960328 0.0
749 1 35.8785608 -47.424643264 0.0
750 1 42.89798488 10.294704 0.0
751 1 -31.28259408 20.5608116 0.0
752 1 -42.94163816 -1.08572944 0.0
753 1 -4.83535944 21.313072 0.0
754 1 -48.604869216 43.8668776 0.0
755 1 -47.048232936 13.76548992 0.0
756 1 47.11146016 -5.6679232 0.0
757 1 -30.79050256 51.63179232 0.0
758 1 51.24755008 36.74975888 0.0
759 1 -18.85798352 5.28601536 0.0
760 1 11.6795868 34.54340072 0.0
761 1 5.67702736 -17.69988768 0.0
762 1 50.92400224 12.52732416 0.0
763 1 8.93059736 -34.72665112 0.0
764 1 57.55276448 -7.50241144 0.0
765 1 14.51483232 10.56164264 0.0
766 1 15.60453024 12.4633616 0.0
767 1 -7.13731128 -42.39410464 0.0
768 1 16.71231976 -6.00220928 0.0
769 1 -36.7206956 -22.64064528 0.0
770 1 -27.10751968 1.39923936 0.0
771 1 36.31077496 7.49552496 0.0
772 1 -11.1835268 -12.0624284 0.0
773 1 4.87142592 42.16650064 0.0
774 1 1.4158136 10.52557616 0.0
775 1 19.92795576 -41.60706168 0.0
776 1 -29.06841568 -40.91176064 0.0
777 1 21.86772544 -1.60443312 0.0
778 1 -43.21067776 28.56336824 0.0
779 1 -56.320481408 -20.26504312 0.0
780 1 22.94283336 -13.52808144 0.0
781 1 -6.61312176 -54.114403376 0.0
782 1 33.1333064 -36.82609376 0.0
783 1 -41.13119424 -35.14229104 0.0
784 1 -39.4157604 -41.15232056 0.0
785 1 24.4814364 18.89825192 0.0
786 1 37.79673728 -48.671492992 0.0
787 1 3.96404464 -57.8850861624 0.0
788 1 -21.56378656 0.55196888 0.0
789 1 -55.779285784 50.56730592 0.0
790 1 23.38788672 21.44531576 0.0
791 1 -14.24065704 -38.31964288 0.0
792 1 -43.83022752 -49.050027624 0.0
793 1 53.89651048 24.6763588 0.0
794 1 -28.4090644 -12.82379296 0.0
795 1 22.32246656 47.814348 0.0
796 1 -42.43519008 -53.555536344 0.0
797 1 -24.19477208 -24.15800528 0.0
798 1 46.76538536 12.57284496 0.0
799 1 55.67450624 -30.27985256 0.0
800 1 -18.50665632 52.67071704 0.0
801 1 -14.53374096 -58.2954994775 0.0
802 1 -50.977016464 29.41203936 0.0
803 1 21.42243864 -32.2053824 0.0
804 1 -27.97509944 -26.39786208 0.0
805 1 -41.4665308 -54.150504872 0.0
806 1 26.59768672 -47.715474488 0.0
807 1 -34.58343568 -49.005965824 0.0
808 1 33.56096848 -25.00585936 0.0
809 1 -15.38824808 -34.3045916 0.0
810 1 -17.85080664 7.10264544 0.0
811 1 -38.73890112 54.19216224 0.0
812 1 54.61784008 -0.29518488 0.0
813 1 -6.73019192 42.66326096 0.0
814 1 12.71769448 -18.885296 0.0
815 1 -33.71270448 -19.86130864 0.0
816 1 -1.56323096 42.62345944 0.0
817 1 8.2573564 -31.60182328 0.0
818 1 23.31341936 -14.70858752 0.0
819 1 -16.75819072 48.94804936 0.0
820 1 2.15955344 -18.54902568 0.0
821 1 -41.42649584 48.4685636 0.0
822 1 17.8569928 -21.99133192 0.0
823 1 9.76736304 -20.59886232 0.0
824 1 -49.387126656 38.82597424 0.0
825 1 5.51490328 39.1175408 0.0
826 1 -27.47495424 46.87218416 0.0
827 1 -50.772593056 -12.70485528 0.0
828 1 -4.40407904 -32.1015016 0.0
829 1 32.4026392 3.8033212 0.0
830 1 -26.78618952 22.75094568 0.0
831 1 47.50142168 -4.25339352 0.0
832 1 -10.97623208 44.23431216 0.0
833 1 -40.98716176 -26.2322364 0.0
834 1 9.53357288 7.29068136 0.0
835 1 0.97414512 -9.15411616 0.0
836 1 -19.89574104 17.53916424 0.0
837 1 13.68822128 -48.566876856 0.0
838 1 -48.841495672 -54.809179176 0.0
839 1 -52.905044112 -26.30016744 0.0
840 1 42.61668968 -26.28954592 0.0
841 1 -10.77453992 -6.50912424 0.0
842 1 46.30877672 -28.07769632 0.0
843 1 23.50320608 19.41497136 0.0
844 1 -5.62485352 53.63470752 0.0
845 1 -19.40540032 42.43273896 0.0
846 1 1.72173672 33.52968752 0.0
847 1 0.83898336 -50.149063144 0.0
848 1 -38.77356696 16.92334952 0.0
849 1 2.80933368 5.58808672 0.0
850 1 7.41662224 -21.71388848 0.0
851 1 9.010784 -4.0496004 0.0
852 1 -16.92510032 25.68785432 0.0
853 1 22.97586512 -45.02789144 0.0
854 1 20.8240152 -56.903299384 0.0
855 1 5.1280932 -55.020594112 0.0
856 1 -44.36036976 -52.318887944 0.0
857 1 -9.72289272 15.10636928 0.0
858 1 -3.63687848 23.034692 0.0
859 1 -56.8624824 -10.31559688 0.0
860 1 -32.36026984 20.95520848 0.0
861 1 26.1867156 26.22791776 0.0
862 1 -46.8563686 41.091276 0.0
863 1 -29.96237416 52.39642504 0.0
864 1 -13.48256064 33.30581856 0.0
865 1 -51.550601888 4.47831296 0.0
866 1 -9.5867972 -58.1751598736 0.0
867 1 -38.74368664 -37.68060088 0.0
868 1 -18.39110352 -19.53320872 0.0
869 1 -37.89793352 -28.613908 0.0
870 1 20.12649648 27.83445184 0.0