ITEM: TIMESTEP
0
ITEM: NUMBER OF ATOMS
9322
ITEM: BOX BOUNDS pp pp pp
-5.8359999999999999e+01 5.8359999999999999e+01
-5.8359999999999999e+01 5.8359999999999999e+01
-5.0000000000000000e-01 5.0000000000000000e-01
ITEM: ATOMS id type xs ys zs c_002[1] c_002[2]
1 1 0.989714 0.457905 0.5 0.445634 -0.185138
2 1 0.778801 0.732493 0.5 0.19239 -0.481824
3 1 0.117715 0.00256792 0.5 0.175307 0.476341
4 1 0.0445135 0.173769 0.5 0.251226 -0.534853
5 1 0.830315 0.999146 0.5 -0.574324 0.231645
6 1 0.365121 0.161202 0.5 0.0442591 0.130831
7 1 0.336772 0.326375 0.5 -0.0843644 -0.649095
8 1 0.85275 0.72722 0.5 0.566159 0.438631
9 1 0.960634 0.929086 0.5 0.224201 0.607367
10 1 0.406781 0.758521 0.5 -0.366541 -0.625421
11 1 0.452322 0.877847 0.5 -0.0947782 -0.794983
12 1 0.921939 0.578049 0.5 -0.551081 -0.433111
13 1 0.603693 0.446556 0.5 -0.810616 -0.161477
14 1 0.968636 0.257832 0.5 0.164297 -0.338301
15 1 0.754057 0.295578 0.5 -0.0970799 -0.589747
16 1 0.993652 0.442346 0.5 0.160872 0.598702
17 1 0.790724 0.936036 0.5 -0.479241 0.275402
18 1 0.756012 0.885283 0.5 0.139246 -0.390368
19 1 0.863263 0.703015 0.5 -0.10262 0.149534
20 1 0.920302 0.748028 0.5 0.560145 -0.135375
21 1 0.963297 0.138352 0.5 0.148403 -0.376453
22 1 0.314635 0.393804 0.5 0.303105 -0.14808
23 1 0.868927 0.0319521 0.5 0.492337 0.436181
24 1 0.0347755 0.629181 0.5 -0.755645 -0.166073
25 1 0.617706 0.21329 0.5 -0.335576 -0.470256
26 1 0.115494 0.259619 0.5 0.33508 -0.211727
27 1 0.546894 0.935146 0.5 0.598643 -0.609434
28 1 0.7633 0.0177015 0.5 0.449971 0.099613
29 1 0.1025 0.934874 0.5 0.214763 0.217305
30 1 0.758158 0.0586487 0.5 0.238418 -0.474937
31 1 0.173524 0.199748 0.5 -0.14013 -0.508105
32 1 0.977908 0.0823267 0.5 0.551252 0.159053
33 1 0.922502 0.154832 0.5 -0.167996 0.250551
34 1 0.82199 0.0663145 0.5 -0.0292429 0.407985
35 1 0.685315 0.343633 0.5 0.0925009 -0.413618
36 1 0.014308 0.694621 0.5 0.0470318 -0.578293
37 1 0.319189 0.120612 0.5 0.336615 0.642688
38 1 0.0768657 0.851748 0.5 -0.118573 0.413832
39 1 0.441063 0.444325 0.5 -0.29861 0.602291
40 1 0.949719 0.27027 0.5 -0.126543 -0.769829
41 1 0.954529 0.692044 0.5 0.242493 0.736704
42 1 0.596768 0.169519 0.5 0.598419 0.72903
43 1 0.956249 0.116755 0.5 0.143878 -0.404853
44 1 0.0612808 0.691185 0.5 0.408792 -0.134995
45 1 0.0897113 0.39483 0.5 0.655422 0.228807
46 1 0.501853 0.713752 0.5 0.142988 0.798219
47 1 0.675427 0.406935 0.5 -0.0610334 -0.260752
48 1 0.806861 0.10901 0.5 -0.0860188 -0.343078
49 1 0.877327 0.849761 0.5 0.613063 0.341893
50 1 0.979543 0.127604 0.5 0.629067 0.609192
51 1 0.930959 0.418638 0.5 0.355162 -0.594628
52 1 0.867223 0.597002 0.5 0.0732128 -0.292189
53 1 0.852427 0.990225 0.5 -0.145824 -0.263503
54 1 0.997455 0.21007 0.5 0.643716 -0.576052
55 1 0.831147 0.244529 0.5 -0.100948 0.619828
56 1 0.0764417 0.465885 0.5 0.076557 0.89055
57 1 0.163159 0.242176 0.5 0.079557 0.0321619
58 1 0.823119 0.607398 0.5 0.386525 -0.472572
59 1 0.0426721 0.0957556 0.5 -0.0333969 0.750537
60 1 0.932804 0.992638 0.5 0.515265 0.111237
61 1 0.911664 0.355025 0.5 0.263191 0.872284
62 1 0.00306416 0.566412 0.5 0.0145876 0.215191
63 1 0.945893 0.370974 0.5 -0.542496 0.22898
64 1 0.77148 0.143399 0.5 0.665731 -0.243068
65 1 0.0253983 0.330394 0.5 -0.253566 -0.0649966
66 1 0.146107 0.323001 0.5 -0.536575 0.034116
67 1 0.938622 0.554095 0.5 0.137924 0.34276
68 1 0.564094 8.65909e-05 0.5 0.638477 0.214593
69 1 0.537681 0.905955 0.5 0.551491 -0.61991
70 1 0.960424 0.00257674 0.5 0.788643 -0.142781
71 1 0.688502 0.507487 0.5 0.504759 -0.0418152
72 1 0.773675 0.331336 0.5 0.0473959 0.0435982
73 1 0.813507 0.607506 0.5 0.0156663 -0.591966
74 1 0.409135 0.0790745 0.5 -0.464812 -0.615889
75 1 0.808353 0.209948 0.5 -0.329215 0.237099
76 1 0.72267 0.871658 0.5 -0.689364 0.667379
77 1 0.158796 0.185408 0.5 -0.285945 -0.827039
78 1 0.879371 0.352447 0.5 0.55261 -0.765614
79 1 0.58603 0.518741 0.5 0.188499 -0.0199957
80 1 0.0847595 0.21875 0.5 -0.387771 0.505565
81 1 0.872038 0.807439 0.5 -0.683269 0.153335
82 1 0.843515 0.28755 0.5 0.276882 -0.165164
83 1 0.0273784 0.416048 0.5 -0.142924 -0.672624
84 1 0.972148 0.525994 0.5 -0.753181 -0.401113
85 1 0.107887 0.199577 0.5 0.514197 0.115786
86 1 0.708383 0.238946 0.5 0.641393 0.0399975
87 1 0.868712 0.000566929 0.5 0.0330865 -0.452509
88 1 0.775833 0.885342 0.5 -0.32372 0.0667183
89 1 0.826016 0.981854 0.5 -0.0870704 -0.314439
90 1 0.135219 0.559263 0.5 -0.632787 -0.52155
91 1 0.179574 0.934542 0.5 -0.574029 0.163457
92 1 0.678732 0.869209 0.5 0.0197125 0.57394
93 1 0.948523 0.107809 0.5 0.215797 -0.336776
94 1 0.714911 0.727229 0.5 -0.46809 0.643493
95 1 0.841037 0.24947 0.5 -0.396157 0.120226
96 1 0.931891 0.0752921 0.5 -0.107437 0.887574
97 1 0.59048 0.487217 0.5 -0.555039 -0.04468
98 1 0.871998 0.817026 0.5 -0.755761 0.309372
99 1 0.627444 0.222724 0.5 0.31059 -0.514338
100 1 0.939745 0.0987269 0.5 0.602301 -0.614891
101 1 0.957952 0.285386 0.5 -0.0953535 0.297234
102 1 0.425996 0.97414 0.5 -0.160971 0.33518
103 1 0.913147 0.0916129 0.5 -0.43678 -0.155651
104 1 0.937668 0.117364 0.5 -0.453501 0.680641
105 1 0.712704 0.650411 0.5 -0.256494 0.541041
106 1 0.843826 0.887888 0.5 -0.771461 0.081871
107 1 0.746285 0.28593 0.5 0.59352 -0.319679
108 1 0.0221418 0.468371 0.5 0.0744846 -0.314541
109 1 0.594236 0.205997 0.5 0.117565 -0.303337
110 1 0.659063 0.532822 0.5 -0.188946 -0.347945
111 1 0.396777 0.00842526 0.5 -0.747226 -0.291813
112 1 0.902641 0.188467 0.5 -0.7484 -0.252168
113 1 0.853965 0.806343 0.5 -0.200948 -0.0039708
114 1 0.792827 0.874888 0.5 0.0164114 0.086508
115 1 0.200445 0.370635 0.5 -0.81677 0.392219
116 1 0.604851 0.43626 0.5 -0.326791 0.531054
117 1 0.765497 0.461317 0.5 0.270913 0.317033
118 1 0.84809 0.448411 0.5 -0.82166 -0.171254
119 1 0.169213 0.894978 0.5 -0.350614 0.1056
120 1 0.789281 0.322252 0.5 0 0
121 1 0.0877518 0.203077 0.5 -0.327201 -0.516084
122 1 0.187144 0.348271 0.5 0.436953 0.764448
123 1 0.230356 0.601354 0.5 -0.254358 -0.129567
124 1 0.289012 0.386069 0.5 0.476384 -0.288581
125 1 0.824249 0.282833 0.5 -0.508757 -0.470322
126 1 0.740295 0.835974 0.5 0.200894 -0.392394
127 1 0.288236 0.242849 0.5 -0.0446347 -0.554665
128 1 0.89398 0.945287 0.5 -0.378973 -0.531336
129 1 0.180683 0.490891 0.5 0.864624 0.0282725
130 1 0.146271 0.386095 0.5 -0.215441 0.0252594
131 1 0.0125826 0.209484 0.5 -0.402622 0.139556
132 1 0.81901 0.216337 0.5 0.42133 0.0606225
133 1 0.784402 0.313442 0.5 0.5499 0.199724
134 1 0.722882 0.948952 0.5 -0.640028 -0.33764
135 1 0.986548 0.309785 0.5 -0.65161 -0.0874871
136 1 0.232697 0.184546 0.5 -0.122862 -0.69559
137 1 0.978629 0.970069 0.5 -0.0320656 -0.017968
138 1 0.890637 0.350909 0.5 0.467815 -0.0654375
139 1 0.928779 0.311918 0.5 -0.00203765 0.508016
140 1 0.892674 0.370224 0.5 0.0685638 -0.161969
141 1 0.208839 0.485427 0.5 -0.418898 0.158509
142 1 0.0331509 0.825807 0.5 -0.0887301 -0.054736
143 1 0.0914295 0.961032 0.5 0.347943 0.448745
144 1 0.126586 0.146504 0.5 0.23317 -0.846687
145 1 0.991494 0.0912993 0.5 -0.370182 0.10544
146 1 0.0604136 0.169587 0.5 0.428492 0.156101
147 1 0.788496 0.153637 0.5 0.0876674 0.185927
148 1 0.919695 0.398381 0.5 0.470107 0.389956
149 1 0.57201 0.667283 0.5 -0.654448 -0.148277
150 1 0.296159 0.295123 0.5 0.0794399 -0.796753
151 1 0.674247 0.243439 0.5 0.550021 -0.144992
152 1 0.919611 0.121908 0.5 -0.225626 0.499594
153 1 0.143624 0.22607 0.5 -0.528245 0.43812
154 1 0.0894441 0.299749 0.5 -0.00472575 0.219691
155 1 0.0239821 0.218966 0.5 -0.0853238 -0.52255
156 1 0.891278 0.879724 0.5 0.192414 0.125463
157 1 0.865842 0.96214 0.5 -0.730292 -0.388055
158 1 0.280431 0.0408719 0.5 -0.473411 0.143207
159 1 0.170331 0.0961304 0.5 -0.13775 0.212571
160 1 0.906688 0.962561 0.5 -0.110203 -0.106276
161 1 0.720617 0.322906 0.5 -0.0481291 0.293773
162 1 0.874281 0.14007 0.5 0.100564 0.284195
163 1 0.615023 0.993047 0.5 0.257312 0.0459483
164 1 0.888641 0.293697 0.5 0.216367 -0.508964
165 1 0.759626 0.347771 0.5 -0.266001 0.305088
166 1 0.570864 0.989524 0.5 0.154907 0.0946315
167 1 0.658694 0.304257 0.5 0.209947 -0.208259
168 1 0.0392919 0.982165 0.5 -0.86818 0.270556
169 1 0.959779 0.405694 0.5 -0.721973 -0.469443
170 1 0.75581 0.810059 0.5 -0.578208 -0.184228
171 1 0.932917 0.869649 0.5 -0.357061 0.855288
172 1 0.955161 0.385508 0.5 -0.00111019 0.159636
173 1 0.0701462 0.899131 0.5 -0.589697 -0.199316
174 1 0.851131 0.0975875 0.5 0.294666 0.0193577
175 1 0.869 0.147852 0.5 0.416364 0.432288
176 1 0.575452 0.549832 0.5 0.280236 -0.596986
177 1 0.99307 0.623497 0.5 0.312834 0.398782
178 1 0.0851922 0.130956 0.5 0.24752 -0.945559
179 1 0.136541 0.727169 0.5 0.515595 -0.249188
180 1 0.626294 0.016584 0.5 -0.0298036 -0.243008
181 1 0.657477 0.202054 0.5 0.0620533 -0.337576
182 1 0.992697 0.111717 0.5 -0.335601 0.245382
183 1 0.77557 0.874884 0.5 -0.507908 -0.0753817
184 1 0.751541 0.870572 0.5 0.396666 0.51079
185 1 0.781306 0.00720821 0.5 -0.631068 -0.166634
186 1 0.115093 0.121409 0.5 0.0881149 -0.183543
187 1 0.819671 0.312914 0.5 -0.557078 -0.36945
188 1 0.924466 0.0821011 0.5 -0.174296 0.256834
189 1 0.141099 0.506295 0.5 0.000488019 0.654095
190 1 0.811146 0.65218 0.5 -0.095031 0.720143
191 1 0.641846 0.385591 0.5 -0.00264583 -0.727985
192 1 0.518799 0.0561112 0.5 0.309682 -0.346394
193 1 0.0506225 0.674696 0.5 0.415864 -0.218497
194 1 0.912518 0.807738 0.5 0.70526 0.432608
195 1 0.208598 0.374917 0.5 -0.627699 0.489516
196 1 0.955075 0.965904 0.5 0.611336 0.522082
197 1 0.433421 0.880069 0.5 -0.18304 0.0739337
198 1 0.702736 0.283832 0.5 -0.12853 -0.228003
199 1 0.690639 0.0191966 0.5 0.233396 0.162448
200 1 0.556197 0.203334 0.5 -0.741216 -0.0419881
201 1 0.757957 0.930761 0.5 -0.202526 0.0953273
202 1 0.752556 0.955367 0.5 0.0650794 -0.183782
203 1 0.0233793 0.539372 0.5 0.711231 0.649349
204 1 0.809877 0.352594 0.5 0.357771 0.173828
205 1 0.624129 0.261064 0.5 -0.211476 -0.676251
206 1 0.756044 0.286395 0.5 0.118072 -0.401907
207 1 0.10457 0.664598 0.5 0.517712 0.319998
208 1 0.537269 0.968857 0.5 0.127897 -0.436586
209 1 0.727544 0.675872 0.5 -0.0345787 0.844882
210 1 0.525331 0.0829766 0.5 0.508927 0.28269
211 1 0.945119 0.629652 0.5 0.262568 0.141837
212 1 0.927757 0.229837 0.5 0.906787 -0.0121763
213 1 0.963994 0.240895 0.5 0.101803 -0.686779
214 1 0.0560654 0.380454 0.5 0.55908 -0.616589
215 1 0.147727 0.476413 0.5 -0.520675 -0.0413117
216 1 0.819455 0.159289 0.5 0.48458 -0.345404
217 1 0.682288 0.0796784 0.5 -0.213937 0.145003
218 1 0.814366 0.259588 0.5 -0.599726 0.533629
219 1 0.907614 0.81617 0.5 0.120172 -0.135878
220 1 0.032298 0.701381 0.5 -0.486914 -0.259704
221 1 0.807376 0.749039 0.5 -0.253491 0.540157
222 1 0.82684 0.3369 0.5 -0.384669 -0.302348
223 1 0.921843 0.175541 0.5 0.0281121 0.411904
224 1 0.754582 0.422674 0.5 -0.230049 -0.690894
225 1 0.967418 0.0828648 0.5 0.128273 -0.211157
226 1 0.745578 0.310689 0.5 -0.297616 -0.255816
227 1 0.289699 0.671009 0.5 0.171949 -0.0955142
228 1 0.0517574 0.0983698 0.5 -0.253985 0.602283
229 1 0.849413 0.217876 0.5 0.501177 -0.0548565
230 1 0.962081 0.530903 0.5 -0.816327 -0.0982996
231 1 0.957988 0.159431 0.5 -0.750075 -0.215696
232 1 0.996954 0.532651 0.5 -0.46757 -0.0216871
233 1 0.831098 0.939659 0.5 0.241772 -0.434818
234 1 0.943209 0.405536 0.5 -0.202652 -0.237228
235 1 0.871592 0.0417554 0.5 0.0929164 0.866733
236 1 0.0702745 0.168588 0.5 0.913375 0.0176613
237 1 0.29552 0.940694 0.5 0.0652319 0.61308
238 1 0.448464 0.123828 0.5 -0.0641651 0.120271
239 1 0.097026 0.92389 0.5 0.66993 0.622665
240 1 0.563892 0.513501 0.5 -0.892991 -0.200664
241 1 0.815292 0.364632 0.5 0.14855 0.305761
242 1 0.941091 0.0779469 0.5 0.150132 0.812144
243 1 0.0961026 0.591067 0.5 0.0926048 -0.458127
244 1 0.751594 0.831023 0.5 -0.362649 -0.625324
245 1 0.869252 0.408926 0.5 0.358968 -0.126194
246 1 0.0318384 0.72473 0.5 0.161347 -0.27931
247 1 0.687168 0.333898 0.5 -0.286376 -0.893778
248 1 0.827953 0.435018 0.5 -0.305807 -0.0614085
249 1 0.0472535 0.859978 0.5 -0.511213 0.251509
250 1 0.086613 0.240071 0.5 0.00368751 0.455364
251 1 0.209201 0.7091 0.5 0.00583075 -0.136137
252 1 0.893937 0.228006 0.5 -0.133656 0.122647
253 1 0.0887434 0.147927 0.5 0.115153 -0.682017
254 1 0.680796 0.278308 0.5 0.220177 -0.332626
255 1 0.980396 0.364893 0.5 0.493499 -0.393684
256 1 0.720564 0.822782 0.5 -0.187826 -0.177941
257 1 0.528959 0.44616 0.5 0.227063 -0.367198
258 1 0.998562 0.0358262 0.5 0.119816 0.335297
259 1 0.0742211 0.713649 0.5 -0.00531562 -0.518533
260 1 0.688557 0.147481 0.5 0.283101 0.418309
261 1 0.838147 0.216238 0.5 0.339223 0.18477
262 1 0.00160022 0.0957792 0.5 -0.751517 -0.00370067
263 1 0.717361 0.0817992 0.5 0.594457 -0.0194261
264 1 0.928675 0.188729 0.5 -0.336314 -0.00624741
265 1 0.951637 0.982558 0.5 0.560431 0.311142
266 1 0.00787936 0.772896 0.5 0.456111 0.67027
267 1 0.552199 0.267069 0.5 0.39909 -0.0472672
268 1 0.151147 0.16993 0.5 -0.393698 -0.70741
269 1 0.781497 0.269397 0.5 0.686334 0.412115
270 1 0.791953 0.998215 0.5 -0.21982 0.318598
271 1 0.7459 0.362743 0.5 -0.0132091 -0.236324
272 1 0.727185 0.0367734 0.5 -0.6266 -0.103571
273 1 0.431721 0.914844 0.5 0.495988 -0.324344
274 1 0.0765796 0.160222 0.5 0.428994 0.0221032
275 1 0.835664 0.88309 0.5 -0.0187133 0.505576
276 1 0.0292158 0.21053 0.5 -0.252658 -0.0676237
277 1 0.121084 0.487113 0.5 0.538821 -0.460212
278 1 0.895715 0.0275206 0.5 0.272951 0.373425
279 1 0.658835 0.291847 0.5 -0.0441633 0.0853198
280 1 0.0405942 0.744871 0.5 -0.153338 -0.0496168
281 1 0.696771 0.730564 0.5 0.151467 0.854254
282 1 0.239764 0.401159 0.5 -0.612752 -0.518172
283 1 0.839378 0.15541 0.5 0.667616 -0.634149
284 1 0.825397 0.891943 0.5 -0.396711 -0.0413841
285 1 0.073055 0.965562 0.5 -0.251878 0.486683
286 1 0.978719 0.34626 0.5 0.945814 -0.0266091
287 1 0.698277 0.741771 0.5 -0.0875605 0.139412
288 1 0.960203 0.974389 0.5 -0.0948766 0.406805
289 1 0.728598 0.391145 0.5 -0.631406 0.376182
290 1 0.186287 0.0289028 0.5 0.0403628 0.558277
291 1 0.932489 0.20237 0.5 0.446977 -0.034131
292 1 0.644732 0.30519 0.5 0.0793633 -0.138675
293 1 0.544809 0.335587 0.5 -0.116025 0.224551
294 1 0.574014 0.42159 0.5 -0.459683 -0.580693
295 1 0.905892 0.52154 0.5 -0.547735 0.507405
296 1 0.737196 0.802369 0.5 0.410524 0.0868396
297 1 0.913093 0.583227 0.5 -0.16685 0.54822
298 1 0.849084 0.268456 0.5 0.789206 -0.498972
299 1 0.205694 0.460789 0.5 0.456738 -0.0400467
300 1 0.847988 0.429256 0.5 -0.19504 -0.0410362
301 1 0.953704 0.592782 0.5 -0.647506 -0.0214472
302 1 0.846346 0.661464 0.5 0.494398 0.20918
303 1 0.340714 0.391619 0.5 -0.21924 -0.0694964
304 1 0.897331 0.45902 0.5 -0.148026 -0.165093
305 1 0.0714255 0.282554 0.5 0.374973 -0.737073
306 1 0.0870906 0.738418 0.5 0.195937 0.0917862
307 1 0.955947 0.731277 0.5 0.777754 -0.0888034
308 1 0.00649421 0.530434 0.5 0.628504 -0.256643
309 1 0.613051 0.675732 0.5 -0.226521 -0.608385
310 1 0.693945 0.654297 0.5 -0.247081 0.767861
311 1 0.88581 0.129767 0.5 0.308081 -0.350964
312 1 0.804621 0.717459 0.5 -0.211673 -0.698579
313 1 0.796934 0.340833 0.5 0.131274 0.0432589
314 1 0.00453214 0.421025 0.5 0.340779 -0.345229
315 1 0.999598 0.372165 0.5 0.104101 -0.582329
316 1 0.115474 0.0766051 0.5 -0.531269 0.729064
317 1 0.0587577 0.406646 0.5 -0.218635 0.553699
318 1 0.22742 0.323592 0.5 0.151697 -0.574617
319 1 0.193133 0.416797 0.5 -0.225978 0.810401
320 1 0.19822 0.399705 0.5 -0.142559 0.463001
321 1 0.25601 0.0782939 0.5 0.0544415 0.0853654
322 1 0.544745 0.806985 0.5 -0.288939 -0.145336
323 1 0.877488 0.460346 0.5 -0.306351 -0.226174
324 1 0.943855 0.507593 0.5 -0.790607 0.0609253
325 1 0.027318 0.0821543 0.5 -0.463921 0.116198
326 1 0.990286 0.502299 0.5 -0.377725 0.907838
327 1 0.912469 0.662399 0.5 0.581602 0.454877
328 1 0.167728 0.289703 0.5 0.226663 0.296388
329 1 0.929397 0.481019 0.5 0.579258 -0.454183
330 1 0.866509 0.426603 0.5 -0.161931 0.258991
331 1 0.826404 0.48842 0.5 -0.045312 -0.0891419
332 1 0.756658 0.489756 0.5 -0.110011 0.76425
333 1 0.131396 0.503678 0.5 0.568214 0.0901411
334 1 0.961887 0.52101 0.5 -0.757483 -0.233041
335 1 0.536249 0.67023 0.5 -0.284478 0.272438
336 1 0.628164 0.500752 0.5 -0.0508178 -0.0463137
337 1 0.728927 0.427285 0.5 -0.265705 0.131126
338 1 0.918232 0.295311 0.5 -0.039423 -0.0275899
339 1 0.193796 0.598432 0.5 0.93953 -0.286894
340 1 0.0076846 0.451454 0.5 0.261773 -0.0215679
341 1 0.947613 0.279738 0.5 -0.266488 -0.0736776
342 1 0.109585 0.00777372 0.5 -0.0944107 -0.421904
343 1 0.0251988 0.642213 0.5 0.44749 -0.44664
344 1 0.912871 0.475219 0.5 0.502731 -0.711299
345 1 0.193649 0.258595 0.5 0.744232 -0.315831
346 1 0.959171 0.807683 0.5 0.506767 0.0304182
347 1 0.593351 0.615834 0.5 -0.739814 0.344538
348 1 0.942567 0.890044 0.5 0.666255 0.357572
349 1 0.666656 0.102988 0.5 -0.507529 0.329036
350 1 0.187698 0.310349 0.5 -0.360099 0.496834
351 1 0.891678 0.546359 0.5 0.0237583 0.460228
352 1 0.25261 0.292675 0.5 -0.248645 0.378634
353 1 0.662568 0.243383 0.5 0.440122 0.0780862
354 1 0.180325 0.817072 0.5 -0.508321 0.0414253
355 1 0.30297 0.210002 0.5 -0.928025 0.085834
356 1 0.164344 0.132444 0.5 0.297549 0.165398
357 1 0.985232 0.379144 0.5 -0.152282 0.635206
358 1 0.70787 0.669339 0.5 -0.0411421 0.733029
359 1 0.140829 0.817476 0.5 -0.786145 0.429336
360 1 0.593901 0.0951306 0.5 -0.623586 0.678629
361 1 0.300103 0.285306 0.5 0.264041 -0.840055
362 1 0.266851 0.528892 0.5 0.54387 -0.646335
363 1 0.0195866 0.686233 0.5 -0.145744 0.0198593
364 1 0.908123 0.253447 0.5 0.629252 -0.0951835
365 1 0.889177 0.624422 0.5 0.499774 0.221764
366 1 0.236794 0.318631 0.5 0.1115 -0.622788
367 1 0.0286538 0.264292 0.5 0.245078 -0.557598
368 1 0.0992516 0.396254 0.5 0.513575 0.63845
369 1 0.954947 0.873715 0.5 0.557586 0.231428
370 1 0.348628 0.155002 0.5 -0.0610654 -0.901523
371 1 0.16973 0.755241 0.5 -0.79711 0.140369
372 1 0.988327 0.492908 0.5 -0.409157 0.437807
373 1 0.894068 0.00272219 0.5 0.337878 -0.387787
374 1 0.99877 0.636792 0.5 0.438805 -0.154234
375 1 0.063196 0.725084 0.5 0.463336 -0.498936
376 1 0.754232 0.152182 0.5 0.574583 0.511996
377 1 0.914033 0.505268 0.5 -0.557776 0.31415
378 1 0.679657 0.759466 0.5 -0.689616 0.0839565
379 1 0.117412 0.889392 0.5 -0.0851542 0.295292
380 1 0.824176 0.665266 0.5 0.219946 0.155772
381 1 0.0458115 0.62141 0.5 -0.64121 -0.136337
382 1 0.213745 0.337988 0.5 -0.476614 0.72663
383 1 0.952805 0.679603 0.5 -0.540884 0.050579
384 1 0.0045074 0.0561708 0.5 -0.192205 -0.0264815
385 1 0.0530116 0.936284 0.5 -0.210022 -0.0646329
386 1 0.944098 0.574664 0.5 0 0
387 1 0.838205 0.516521 0.5 0.110342 -0.672865
388 1 0.804868 0.473365 0.5 -0.402213 0.033869
389 1 0.9771 0.41018 0.5 0.408317 -0.367243
390 1 0.84455 0.277348 0.5 0.37972 -0.106355
391 1 0.26122 0.620528 0.5 -0.176732 0.626537
392 1 0.527638 0.67598 0.5 -0.340448 0.406506
393 1 0.496702 0.396663 0.5 -0.0899954 -0.388542
394 1 0.988138 0.726051 0.5 -0.724129 0.198557
395 1 0.766378 0.481005 0.5 -0.2152 0.593479
396 1 0.345811 0.281831 0.5 0.964142 -0.00621482
397 1 0.0700497 0.501768 0.5 0.31064 0.168726
398 1 0.653508 0.211589 0.5 0.12793 -0.0016068
399 1 0.276994 0.359898 0.5 0.224275 0.114061
400 1 0.842747 0.350676 0.5 0.311611 -0.600986
401 1 0.695938 0.0620116 0.5 0.577863 0.372463
402 1 0.862368 0.473761 0.5 -0.367812 0.421005
403 1 0.0231279 0.521477 0.5 0.381914 0.114713
404 1 0.0120235 0.433595 0.5 0.348374 0.538287
405 1 0.589808 0.333265 0.5 -0.613385 -0.535606
406 1 0.942712 0.8346 0.5 0.541962 0.792662
407 1 0.634327 0.46824 0.5 -0.337706 0.644642
408 1 0.142272 0.408985 0.5 0.0240837 -0.335514
409 1 0.876334 0.683579 0.5 0.719266 0.203861
410 1 0.822973 0.149471 0.5 0.420888 -0.843509
411 1 0.0155513 0.326565 0.5 -0.412649 0.57518
412 1 0.105375 0.732857 0.5 -0.142543 0.404966
413 1 0.0875901 0.439221 0.5 -0.516211 0.463393
414 1 0.736603 0.564754 0.5 -0.391529 -0.202952
415 1 0.977707 0.255079 0.5 -0.233251 -0.838403
416 1 0.0431951 0.657052 0.5 0.233127 -0.405801
417 1 0.862213 0.462045 0.5 -0.209096 0.423262
418 1 0.93938 0.272639 0.5 -0.300285 -0.10953
419 1 0.126049 0.564533 0.5 -0.19091 -0.165454
420 1 0.181341 0.976556 0.5 0.195509 0.568337
421 1 0.00987423 0.78304 0.5 0.476022 0.474415
422 1 0.0589939 0.798314 0.5 -0.420043 0.588206
423 1 0.112407 0.479723 0.5 0.169868 -0.896501
424 1 0.189876 0.406132 0.5 -0.303455 0.813545
425 1 0.440987 0.188223 0.5 0.15307 -0.028885
426 1 0.807436 0.134637 0.5 -0.13103 -0.534709
427 1 0.34757 0.472945 0.5 -0.274894 -0.639624
428 1 0.301954 0.640561 0.5 0.0498763 -0.740371
429 1 0.851398 0.247055 0.5 -0.622536 0.173205
430 1 0.0389954 0.559949 0.5 -0.110455 -0.173899
431 1 0.165345 0.332671 0.5 -0.861606 0.248657
432 1 0.619779 0.725895 0.5 -0.363701 0.146395
433 1 0.511904 0.25575 0.5 -0.35755 -0.825127
434 1 0.905784 0.363303 0.5 -0.107103 0.410347
435 1 0.938705 0.852638 0.5 -0.0191292 0.900848
436 1 0.0736865 0.512153 0.5 0.00653462 0.578781
437 1 0.09637 0.433721 0.5 -0.333886 0.0824034
438 1 0.8073 0.266493 0.5 0.115984 0.613007
439 1 0.0136897 0.704462 0.5 0 0
440 1 0.200293 0.701702 0.5 -0.0464109 -0.34754
441 1 0.755853 0.0956243 0.5 0.604473 -0.527533
442 1 0.00959194 0.835604 0.5 -0.209502 -0.605859
443 1 0.682093 0.809094 0.5 -0.207239 0.317759
444 1 0.348568 0.441319 0.5 0.0562686 -0.408033
445 1 0.914221 0.896956 0.5 0.312503 0.508992
446 1 0.664244 0.488971 0.5 -0.0353264 -0.244342
447 1 0.940293 0.289133 0.5 0.0309903 0.420189
448 1 0.0234539 0.705075 0.5 -0.153218 -0.0699305
449 1 0.00391228 0.442687 0.5 0.617245 0.643527
450 1 0.909935 0.0104208 0.5 0.845509 -0.36061
451 1 0.903697 0.224251 0.5 -0.406291 -0.403695
452 1 0.114598 0.800404 0.5 0.102197 -0.583131
453 1 0.865405 0.951437 0.5 -0.785639 -0.20184
454 1 0.920272 0.256087 0.5 0.249181 0.421198
455 1 0.440617 0.949207 0.5 -0.722767 0.498588
456 1 0.515642 0.684777 0.5 0.00429138 -0.530127
457 1 0.0619561 0.388277 0.5 0.693177 -0.380617
458 1 0.114658 0.469885 0.5 0.337615 -0.50766
459 1 0.174271 0.425428 0.5 -0.379439 -0.507559
460 1 0.426223 0.42008 0.5 0.157065 0.186836
461 1 0.0828899 0.359466 0.5 0.545445 -0.26132
462 1 0.258162 0.454895 0.5 -0.0192285 -0.475058
463 1 0.37156 0.144847 0.5 -0.644621 0.284145
464 1 0.152849 0.831461 0.5 -0.215058 0.429263
465 1 0.187953 0.64006 0.5 -0.269447 0.252972
466 1 0.824179 0.195023 0.5 -0.0382657 0.854726
467 1 0.21119 0.649603 0.5 0.683341 0.354207
468 1 0.642698 0.635659 0.5 0.477506 -0.217205
469 1 0.787552 0.0794746 0.5 -0.517088 0.472907
470 1 0.206989 0.0691737 0.5 0.489534 0.31147
471 1 0.772187 0.831804 0.5 -0.491712 -0.443778
472 1 0.362277 0.535429 0.5 -0.0807098 0.499521
473 1 0.0241212 0.451287 0.5 -0.157521 0.13902
474 1 0.56375 0.416058 0.5 -0.347892 0.18887
475 1 0.0525607 0.643135 0.5 -0.582508 -0.522947
476 1 0.375805 0.194866 0.5 -0.39683 0.152734
477 1 0.137487 0.548612 0.5 -0.678997 -0.354269
478 1 0.217049 0.641731 0.5 0.411885 0.465637
479 1 0.163972 0.541723 0.5 -0.35243 0.497163
480 1 0.280564 0.289772 0.5 0.181531 -0.510646
481 1 0.0426318 0.535553 0.5 0.148332 0.0623517
482 1 0.840135 0.801012 0.5 -0.136382 0.4985
483 1 0.621614 0.537716 0.5 -0.189511 0.244685
484 1 0.0579831 0.418195 0.5 -0.414648 -0.6052
485 1 0.801904 0.529447 0.5 0.32827 0.511724
486 1 0.834004 0.256841 0.5 -0.167905 0.846071
487 1 0.938555 0.229632 0.5 0.771259 0.267801
488 1 0.913978 0.0823191 0.5 0.321442 -0.269222
489 1 0.148862 0.456168 0.5 -0.173357 -0.131338
490 1 0.0327534 0.917898 0.5 0.363875 0.762887
491 1 0.139307 0.418725 0.5 -0.320848 -0.696241
492 1 0.841349 0.474206 0.5 -0.0573369 0.440485
493 1 0.763557 0.978014 0.5 0.769008 0.498148
494 1 0.0295695 0.907726 0.5 0.172931 0.0501828
495 1 0.673768 0.803987 0.5 -0.695873 -0.257448
496 1 0.933521 0.572203 0.5 -0.139248 0.377577
497 1 0.0569623 0.219386 0.5 -0.09119 -0.122515
498 1 0.503601 0.694218 0.5 -0.140034 0.472017
499 1 0.944597 0.531235 0.5 -0.231586 -0.379219
500 1 0.236975 0.350688 0.5 -0.105637 -0.353201
501 1 0.455095 0.263331 0.5 0.298129 0.235676
502 1 0.196493 0.784348 0.5 -0.0263578 -0.372211
503 1 0.630327 0.314478 0.5 0.738233 -0.317206
504 1 0.727656 0.34192 0.5 0.47742 0.708448
505 1 0.290511 0.346862 0.5 -0.735752 -0.293202
506 1 0.13936 0.455691 0.5 -0.21525 -0.0557129
507 1 0.0685544 0.932276 0.5 0.155858 -0.238507
508 1 0.669099 0.252838 0.5 0.80766 -0.361523
509 1 0.156067 0.482996 0.5 0.0589627 -0.239737
510 1 0.98373 0.190983 0.5 0.456622 -0.27168
511 1 0.864731 0.519541 0.5 0.52891 0.286587
512 1 0.28341 0.885342 0.5 -0.0429787 -0.0592459
513 1 0.742182 0.522915 0.5 -0.873233 -0.0578316
514 1 0.870584 0.526996 0.5 -0.0276611 0.0758018
515 1 0.0804343 0.448259 0.5 -0.133032 0.713341
516 1 0.845309 0.32025 0.5 -0.313222 0.138819
517 1 0.138033 0.772848 0.5 -0.449161 -0.38365
518 1 0.889644 0.752812 0.5 -0.854033 0.300098
519 1 0.838817 0.538939 0.5 0.500674 0.143385
520 1 0.201757 0.953098 0.5 0.574916 -0.704964
521 1 0.968304 0.656526 0.5 0.5484 0.0717601
522 1 0.976615 0.0144183 0.5 0.643568 -0.543861
523 1 0.97743 0.304746 0.5 -0.443622 0.0735967
524 1 0.0440143 0.821557 0.5 -0.567539 -0.151431
525 1 0.0294343 0.847563 0.5 -0.00664011 0.240407
526 1 0.283888 0.750657 0.5 -0.0541431 0.691451
527 1 0.0268141 0.402977 0.5 0.226158 0.100177
528 1 0.997519 0.304646 0.5 0.363517 -0.417858
529 1 0.141283 0.806712 0.5 -0.529011 -0.271926
530 1 0.694633 0.418156 0.5 -0.794115 -0.246759
531 1 0.924975 0.608783 0.5 -0.732609 -0.302734
532 1 0.565712 0.465753 0.5 0.0921424 -0.255756
533 1 0.902234 0.141544 0.5 -0.715456 0.343456
534 1 0.18994 0.479177 0.5 0.436166 0.13734
535 1 0.656459 0.410948 0.5 -0.384251 -0.0480903
536 1 0.118764 0.459598 0.5 0.541087 0.163179
537 1 0.0913925 0.478897 0.5 0.263718 0.348356
538 1 0.690817 0.129065 0.5 0.156915 0.0719331
539 1 0.344631 0.320732 0.5 -0.0053212 0.405402
540 1 0.236114 0.782484 0.5 -0.738213 0.464468
541 1 0.167229 0.345081 0.5 -0.532699 0.718168
542 1 0.108227 0.742401 0.5 0.354218 0.585995
543 1 0.178416 0.0713468 0.5 -0.128 0.249808
544 1 0.0667535 0.656929 0.5 0.452963 0.603985
545 1 0.981501 0.958963 0.5 0.284963 0.0672885
546 1 0.160917 0.514886 0.5 0.159826 0.147655
547 1 0.998023 0.41009 0.5 0.907913 -0.334923
548 1 0.178594 0.639718 0.5 -0.428659 0.364692
549 1 0.123873 0.799193 0.5 -0.23205 -0.36793
550 1 0.604532 0.894399 0.5 -0.00368304 0.213918
551 1 0.933537 0.657018 0.5 -0.500839 -0.804166
552 1 0.889754 0.157197 0.5 0.0820213 -0.354511
553 1 0.99014 0.882987 0.5 -0.63419 0.724281
554 1 0.100137 0.958011 0.5 0.199262 -0.449506
555 1 0.173758 0.781559 0.5 0.0483103 -0.355931
556 1 0.00500655 0.387504 0.5 -0.134963 -0.30198
557 1 0.00918226 0.634785 0.5 0.640489 -0.2415
558 1 0.210752 0.107207 0.5 -0.20447 0.75815
559 1 0.994583 0.269647 0.5 -0.778521 0.0863509
560 1 0.99064 0.830348 0.5 0.621018 0.0913514
561 1 0.6038 0.550052 0.5 -0.590308 0.0126931
562 1 0.679436 0.395265 0.5 0.0815888 -0.956842
563 1 0.885741 0.269882 0.5 -0.206129 -0.312325
564 1 0.14819 0.529368 0.5 0.416446 0.456981
565 1 0.801571 0.388575 0.5 0.2904 0.418038
566 1 0.87174 0.631667 0.5 0.48281 0.675327
567 1 0.630164 0.720344 0.5 0.144725 -0.0112926
568 1 0.909799 0.127309 0.5 -0.0230986 0.0996528
569 1 0.850013 0.670222 0.5 0 0
570 1 0.75706 0.600472 0.5 -0.304059 0.266368
571 1 0.684262 0.61897 0.5 0 0
572 1 0.313514 0.787599 0.5 0.0428906 -0.587698
573 1 0.209149 0.929266 0.5 0.146054 0.0866557
574 1 0.18076 0.443746 0.5 -0.543345 0.181219
575 1 0.838006 0.439056 0.5 -0.25744 0.247448
576 1 0.955257 0.439241 0.5 -0.377407 -0.574396
577 1 0.230073 0.945524 0.5 -0.64503 0.0023623
578 1 0.487125 0.393203 0.5 -0.566543 0.385661
579 1 0.906842 0.45563 0.5 -0.426554 -0.449743
580 1 0.44852 0.111051 0.5 -0.155366 0.474492
581 1 0.772902 0.648967 0.5 0.58527 -0.560218
582 1 0.87689 0.791347 0.5 -0.0713358 0.327478
583 1 0.982526 0.201877 0.5 0.394192 -0.420321
584 1 0.440342 0.434444 0.5 -0.474209 0.192858
585 1 0.996832 0.730724 0.5 0 0
586 1 0.395379 0.748569 0.5 -0.352293 0.593601
587 1 0.0198919 0.357195 0.5 0.473471 0.0171729
588 1 0.963351 0.621604 0.5 -0.573422 -0.266747
589 1 0.661086 0.751526 0.5 0.528832 0.681749
590 1 0.693462 0.26433 0.5 -0.666533 -0.108925
591 1 0.0456623 0.544432 0.5 0.146285 0.787252
592 1 0.975178 0.439535 0.5 -0.349019 -0.54992
593 1 0.0750322 0.177876 0.5 0.887003 -0.057414
594 1 0.666339 0.698117 0.5 0.650503 -0.230721
595 1 0.979827 0.459535 0.5 0.878458 -0.0252741
596 1 0.130416 0.34712 0.5 0.5482 0.300807
597 1 0.951412 0.448836 0.5 -0.115336 -0.902977
598 1 0.864216 0.613207 0.5 0.724609 0.407782
599 1 0.122436 0.743532 0.5 0.0724731 -0.22256
600 1 0.0496865 0.912808 0.5 0.0375577 0.315435
601 1 0.120788 0.900459 0.5 -0.332845 0.865224
602 1 0.021382 0.809468 0.5 -0.0264782 -0.3684
603 1 0.944004 0.301576 0.5 -0.226832 0.436483
604 1 0.179764 0.64942 0.5 -0.12675 0.880932
605 1 0.393633 0.818465 0.5 -0.332984 0.480756
606 1 0.165924 0.802198 0.5 0.497014 0.414497
607 1 0.0785923 0.0739711 0.5 0.378494 -0.213373
608 1 0.0151736 0.315014 0.5 -0.0905131 0.672475
609 1 0.913139 0.385264 0.5 0.107827 -0.665831
610 1 0.797704 0.649614 0.5 -0.0923743 0.386916
611 1 0.259432 0.519343 0.5 0.507996 -0.648828
612 1 0.254923 0.578653 0.5 0.316298 0.382318
613 1 0.195899 0.553491 0.5 0.328031 -0.685077
614 1 0.350211 0.5202 0.5 -0.484192 -0.102766
615 1 0.204651 0.677613 0.5 0.320078 -0.404052
616 1 0.0127202 0.565866 0.5 0.0781778 0.303348
617 1 0.237621 0.594956 0.5 0.236636 0.892592
618 1 0.448614 0.464982 0.5 0.448163 0.347006
619 1 0.421916 0.557606 0.5 0.388442 -0.259163
620 1 0.933658 0.704588 0.5 -0.29491 -0.102032
621 1 0.0658023 0.461896 0.5 0.406181 0.654192
622 1 0.0337645 0.567864 0.5 0.617232 0.013008
623 1 0.889707 0.6584 0.5 0.134594 0.34886
624 1 0.0815748 0.960789 0.5 -0.0142091 0.362006
625 1 0.940387 0.539719 0.5 -0.0888536 -0.271168
626 1 0.219925 0.52498 0.5 -0.544475 0.525496
627 1 0.140414 0.922593 0.5 -0.463693 -0.0381948
628 1 0.987323 0.693397 0.5 0.152547 -0.601831
629 1 0.330897 0.465252 0.5 0.217403 0.428333
630 1 0.249679 0.807189 0.5 -0.290516 0.807508
631 1 0.651847 0.518483 0.5 0.330852 -0.325209
632 1 0.839829 0.558483 0.5 0.637886 -0.131436
633 1 0.0821173 0.592455 0.5 0.450402 -0.298162
634 1 0.405305 0.400005 0.5 -0.286829 0.273538