ITEM: TIMESTEP
0
ITEM: NUMBER OF ATOMS
9322
ITEM: BOX BOUNDS pp pp pp
-5.8359999999999999e+01 5.8359999999999999e+01
-5.8359999999999999e+01 5.8359999999999999e+01
-5.0000000000000000e-01 5.0000000000000000e-01
ITEM: ATOMS id type xs ys zs c_002[1] c_002[2]
1 1 0.072947 0.439114 0.5 0.252864 0.360192
2 1 0.53405 0.0274803 0.5 -0.308298 -0.257898
3 1 0.0797718 0.0247716 0.5 -0.564073 0.726319
4 1 0.929335 0.338734 0.5 -0.55165 -0.193107
5 1 0.873678 0.845027 0.5 0.343244 0.353046
6 1 0.447214 0.508196 0.5 -0.23728 -0.0340969
7 1 0.173018 0.618347 0.5 -0.514358 0.558763
8 1 0.981358 0.68115 0.5 -0.624973 0.06506
9 1 0.831917 0.93708 0.5 0.524307 0.123638
10 1 0.196443 0.865006 0.5 -0.125374 -0.130807
11 1 0.283025 0.0151397 0.5 -0.041062 -0.719516
12 1 0.939804 0.388535 0.5 -0.0893452 -0.506011
13 1 0.796556 0.263835 0.5 0.497789 0.271876
14 1 0.257143 0.227765 0.5 -0.222638 -0.247759
15 1 0.630147 0.368808 0.5 0.231665 0.067104
16 1 0.962023 0.473286 0.5 -0.203964 -0.119285
17 1 0.0395036 0.865918 0.5 -0.679761 0.476307
18 1 0.548839 0.0894593 0.5 0.0657414 -0.816362
19 1 0.0773904 0.705182 0.5 -0.0849095 -0.249097
20 1 0.0118632 0.818493 0.5 0.123013 0.783272
21 1 0.84904 0.248741 0.5 0.107163 -0.208307
22 1 0.392273 0.460489 0.5 0.638221 -0.289721
23 1 0.883025 0.231424 0.5 0.0532782 0.376522
24 1 0.549767 0.788351 0.5 0.932262 0.00696088
25 1 0.221068 0.325755 0.5 -0.0886684 0.449099
26 1 0.295651 0.354395 0.5 -0.0243221 -0.171456
27 1 0.280802 0.250663 0.5 0 0
28 1 0.738525 0.971692 0.5 -0.177638 -0.0533091
29 1 0.880416 0.087903 0.5 0.0919712 -0.409703
30 1 0.551476 0.927326 0.5 0.175944 -0.719928
31 1 0.0579273 0.324961 0.5 -0.195516 -0.00450285
32 1 0.678482 0.856975 0.5 -0.1275 0.832865
33 1 0.715446 0.421493 0.5 -0.103204 0.18436
34 1 0.750309 0.319748 0.5 0.159747 0.59016
35 1 0.382616 0.435374 0.5 0.257624 -0.419994
36 1 0.675548 0.905454 0.5 -0.511253 0.585574
37 1 0.893286 0.172264 0.5 -0.712 -0.428149
38 1 0.105261 0.871693 0.5 -0.0777479 0.499685
39 1 0.437025 0.381923 0.5 0.35788 0.317042
40 1 0.82705 0.370758 0.5 -0.0222086 -0.332163
41 1 0.617821 0.804461 0.5 0.0463529 -0.294253
42 1 0.661359 0.356969 0.5 -0.121879 -0.629602
43 1 0.713231 0.128846 0.5 -0.227375 -0.274168
44 1 0.013425 0.976656 0.5 0.31361 -0.460419
45 1 0.297791 0.504951 0.5 -0.60169 -0.127104
46 1 0.107351 0.733276 0.5 0.401316 -0.79093
47 1 0.584681 0.506815 0.5 -0.510297 -0.650886
48 1 0.509241 0.215737 0.5 -0.31261 -0.212917
49 1 0.660536 0.660707 0.5 0.0752741 0.540919
50 1 0.611432 0.222791 0.5 0.58114 0.205887
51 1 0.0982779 0.32162 0.5 0.114838 -0.371678
52 1 0.0112437 0.738449 0.5 0.146899 -0.655405
53 1 0.851351 0.901879 0.5 0.823792 0.144759
54 1 0.131616 0.114345 0.5 -0.114821 -0.25261
55 1 0.544095 0.320356 0.5 0.104458 0.216599
56 1 0.818524 0.19743 0.5 -0.143462 -0.0455193
57 1 0.103489 0.37127 0.5 -0.325118 0.104135
58 1 0.989375 0.420787 0.5 -0.0749805 -0.386237
59 1 0.798792 0.996903 0.5 0.0933156 -0.656977
60 1 0.880052 0.818447 0.5 -0.0955641 -0.48333
61 1 0.756097 0.158019 0.5 0.651644 0.0448294
62 1 0.0611862 0.171317 0.5 -0.257288 0.486048
63 1 0.936934 0.39944 0.5 -0.385359 -0.768109
64 1 0.680893 0.0480239 0.5 0.116669 -0.358283
65 1 0.843191 0.127873 0.5 -0.399518 0.546934
66 1 0.882686 0.282927 0.5 -0.295994 -0.23892
67 1 0.245958 0.776039 0.5 0.0633711 -0.278889
68 1 0.448202 0.049161 0.5 -0.72413 -0.462421
69 1 0.375593 0.828357 0.5 -0.413285 -0.652169
70 1 0.0293826 0.813536 0.5 0.204749 0.642917
71 1 0.503771 0.608727 0.5 0.397324 -0.0971064
72 1 0.377093 0.169544 0.5 0.379805 -0.470762
73 1 0.63929 0.799716 0.5 -0.100705 0.110735
74 1 0.218046 0.0855257 0.5 -0.398529 -0.359468
75 1 0.464905 0.105224 0.5 -0.434544 -0.13685
76 1 0.240534 0.927744 0.5 0.678302 -0.252474
77 1 0.840118 0.187595 0.5 -0.184237 -0.124495
78 1 0.393533 0.0693442 0.5 -0.388766 -0.558006
79 1 0.612422 0.308263 0.5 -0.466692 -0.828491
80 1 0.797571 0.274449 0.5 0.286291 0.129083
81 1 0.563106 0.925557 0.5 -0.281824 -0.646488
82 1 0.800882 0.520766 0.5 -0.112977 -0.0666586
83 1 0.829165 0.227986 0.5 0 0
84 1 0.86293 0.606051 0.5 -0.119802 -0.314323
85 1 0.827437 0.0888124 0.5 -0.0748099 0.158942
86 1 0.360848 0.312783 0.5 0.134168 0.350717
87 1 0.89082 0.835328 0.5 -0.180323 -0.577116
88 1 0.523587 0.797753 0.5 0.538751 0.234367
89 1 0.801614 0.23346 0.5 0.638649 0.160199
90 1 0.985538 0.186988 0.5 -0.753926 -0.213208
91 1 0.759827 0.689694 0.5 0.6252 0.643168
92 1 0.83644 0.722114 0.5 -0.113875 0.0555201
93 1 0.760626 0.28241 0.5 0.572843 -0.490402
94 1 0.617723 0.69179 0.5 -0.171172 -0.0809446
95 1 0.75872 0.24359 0.5 -0.152476 0.00636298
96 1 0.784715 0.128994 0.5 0 0
97 1 0.341514 0.421061 0.5 0.541457 0.0214112
98 1 0.530349 0.78964 0.5 0.194065 0.01352
99 1 0.35971 0.161016 0.5 0.947651 0.0190356
100 1 0.0310107 0.255717 0.5 0.453007 0.557218
101 1 0.965103 0.439385 0.5 0.0821563 -0.717137
102 1 0.917077 0.121962 0.5 0.261463 0.0698665
103 1 0.781201 0.491321 0.5 -0.137693 -0.0820662
104 1 0.691778 0.232336 0.5 0.61595 0.0218373
105 1 0.628978 0.707094 0.5 0.533578 -0.0465298
106 1 0.601637 0.763018 0.5 -0.0921968 -0.0672354
107 1 0.410283 0.178381 0.5 -0.346593 -0.153173
108 1 0.169884 0.637402 0.5 0.647369 0.450283
109 1 0.781088 0.926786 0.5 0.231596 -0.707437
110 1 0.43828 0.595211 0.5 -0.283931 -0.0225232
111 1 0.281362 0.982969 0.5 0.097187 0.267279
112 1 0.541656 0.429523 0.5 -0.0430739 -0.00567329
113 1 0.551653 0.231376 0.5 0.54101 -0.575845
114 1 0.839573 0.763337 0.5 0.335435 -0.814729
115 1 0.189861 0.437327 0.5 0.0917465 0.85358
116 1 0.300496 0.182722 0.5 -0.67041 0.230261
117 1 0.683817 0.47977 0.5 0.266988 -0.654727
118 1 0.871838 0.470064 0.5 -0.380792 0.28593
119 1 0.0933759 0.207221 0.5 -0.4022 -0.141813
120 1 0.68958 0.143788 0.5 -0.90763 -0.339834
121 1 0.305352 0.46757 0.5 -0.802275 -0.310604
122 1 0.802593 0.119967 0.5 0.293185 -0.544368
123 1 0.156069 0.913098 0.5 -0.138626 -0.13025
124 1 0.130706 0.378303 0.5 -0.371074 0.170515
125 1 0.644552 0.247142 0.5 0.302482 -0.288877
126 1 0.640829 0.731424 0.5 -0.0778518 -0.83206
127 1 0.186997 0.428429 0.5 0 0
128 1 0.0225115 0.778083 0.5 0.67475 0.536276
129 1 0.495501 0.670697 0.5 0.521831 0.0820717
130 1 0.287195 0.384761 0.5 0.157007 0.573542
131 1 0.845985 0.381558 0.5 -0.00382191 0.400043
132 1 0.783873 0.0299667 0.5 -0.247194 -0.114198
133 1 0.790325 0.990817 0.5 -0.323239 -0.674425
134 1 0.704268 0.10072 0.5 -0.0518569 0.524195
135 1 0.81103 0.324249 0.5 -0.893149 0.279272
136 1 0.206695 0.117963 0.5 0.594438 -0.463168
137 1 0.564634 0.963524 0.5 -0.341847 -0.544011
138 1 0.671192 0.0395674 0.5 -0.571069 -0.17928
139 1 0.547832 0.277157 0.5 0.232185 0.227007
140 1 0.602212 0.440817 0.5 -0.351542 0.354625
141 1 0.0644551 0.345974 0.5 0.263244 -0.197331
142 1 0.0144265 0.828879 0.5 0.17779 -0.00204743
143 1 0.0261268 0.830261 0.5 -0.0980768 0.540815
144 1 0.0683162 0.0871813 0.5 0.735449 0.00135399
145 1 0.829813 0.902598 0.5 0.4481 0.178952
146 1 0.988878 0.410245 0.5 0.23707 -0.100851
147 1 0.65254 0.17242 0.5 -0.102921 0.945452
148 1 0.848022 0.404699 0.5 -0.612118 0.293314
149 1 0.309314 0.698096 0.5 0.300987 0.0948323
150 1 0.861573 0.336679 0.5 0.390625 -0.0537797
151 1 0.579944 0.279749 0.5 -0.0657079 -0.480256
152 1 0.632797 0.153505 0.5 -0.371006 0.338291
153 1 0.216255 0.451191 0.5 0.185568 -0.719559
154 1 0.209084 0.276393 0.5 0.0812193 -0.0262362
155 1 0.109665 0.283119 0.5 -0.539879 0.301802
156 1 0.403444 0.907737 0.5 -0.258934 0.35168
157 1 0.691101 0.802041 0.5 -0.226312 0.445045
158 1 0.248039 0.283825 0.5 -0.444832 -0.228935
159 1 0.731912 0.171389 0.5 -0.0811197 0.267736
160 1 0.677511 0.413178 0.5 -0.312849 -0.761163
161 1 0.569271 0.634236 0.5 -0.660958 0.0955155
162 1 0.625962 0.342129 0.5 -0.354102 -0.642294
163 1 0.506759 0.0243742 0.5 0.0240798 -0.512746
164 1 0.570101 0.19301 0.5 -0.275016 0.588933
165 1 0.697977 0.421489 0.5 -0.272957 -0.299839
166 1 0.46237 0.0243112 0.5 -0.421511 -0.571142
167 1 0.452892 0.601989 0.5 0.421576 0.00728899
168 1 0.673043 0.894725 0.5 0.206436 0.613917
169 1 0.900955 0.587803 0.5 0.547027 -0.0481418
170 1 0.446895 0.853988 0.5 0.415328 -0.631906
171 1 0.978818 0.632596 0.5 0.40403 -0.537853
172 1 0.30957 0.549024 0.5 0.418969 0.225607
173 1 0.950337 0.841152 0.5 0.471075 0.085794
174 1 0.706949 0.0211676 0.5 0.0207594 -0.339837
175 1 0.876469 0.523857 0.5 -0.379018 0.10573
176 1 0.758376 0.576803 0.5 -0.467431 -0.804428
177 1 0.1225 0.775443 0.5 -0.528644 0.28097
178 1 0.779245 0.750914 0.5 -0.558028 0.464235
179 1 0.0890138 0.646653 0.5 0.810721 -0.18737
180 1 0.705864 0.902237 0.5 -0.23723 0.319726
181 1 0.473162 0.340553 0.5 -0.155229 0.177264
182 1 0.968532 0.272468 0.5 -0.0824116 0.210848
183 1 0.540126 0.860611 0.5 0.844017 0.148534
184 1 0.653736 0.936975 0.5 0 0
185 1 0.466235 0.301325 0.5 -0.417275 -0.0142234
186 1 0.730886 0.158366 0.5 -0.561059 0.405044
187 1 0.78435 0.409859 0.5 -0.0196232 -0.645839
188 1 0.889288 0.995992 0.5 -0.272977 0.0718732
189 1 0.28724 0.661522 0.5 -0.549777 0.393821
190 1 0.684669 0.63044 0.5 -0.157426 0.172267
191 1 0.672782 0.223335 0.5 0.350773 -0.492151
192 1 0.297873 0.0898622 0.5 0.677549 -0.10804
193 1 0.0973042 0.841215 0.5 0.056401 0.754537
194 1 0.582347 0.658128 0.5 -0.653649 0.472011
195 1 0.129233 0.412692 0.5 0.00351913 0.411051
196 1 0.711754 0.953907 0.5 -0.25214 -0.246991
197 1 0.304708 0.926579 0.5 -0.328204 0.381188
198 1 0.623906 0.20135 0.5 -0.118273 0.599863
199 1 0.342626 0.0165018 0.5 -0.211917 0.377842
200 1 0.455329 0.354134 0.5 -0.299301 -0.170825
201 1 0.436299 0.89486 0.5 -0.191191 0.589954
202 1 0.574962 0.215966 0.5 0.18235 0.808025
203 1 0.949755 0.384759 0.5 -0.0465366 -0.112395
204 1 0.863198 0.579698 0.5 -0.268283 -0.15263
205 1 0.546125 0.359539 0.5 0.860203 0.374871
206 1 0.557002 0.209103 0.5 -0.339135 -0.333423
207 1 0.0145937 0.71096 0.5 0.469812 -0.0851946
208 1 0.276402 0.927688 0.5 0.380859 0.279849
209 1 0.683039 0.490775 0.5 0.0379996 -0.0668569
210 1 0.168674 0.0303352 0.5 -0.289078 0.241048
211 1 0.118377 0.521948 0.5 -0.0684958 -0.445893
212 1 0.154157 0.323389 0.5 0.411051 -0.685931
213 1 0.841709 0.370929 0.5 0.0931992 0.00325401
214 1 0.102085 0.403427 0.5 0.225613 0.0256729
215 1 0.767171 0.593505 0.5 -0.417015 -0.174603
216 1 0.840842 0.920231 0.5 0.360827 -0.123214
217 1 0.723565 0.121385 0.5 -0.553538 -0.0521588
218 1 0.771228 0.534503 0.5 -0.511052 -0.767906
219 1 0.0311007 0.459888 0.5 0.508068 0.395407
220 1 0.181289 0.818211 0.5 0.439548 -0.450149
221 1 0.75609 0.680796 0.5 0.234024 0.294135
222 1 0.470912 0.421185 0.5 0.289473 0.701553
223 1 0.751271 0.125563 0.5 -0.342816 -0.506224
224 1 0.768339 0.5076 0.5 -0.125794 0.190403
225 1 0.86252 0.0732124 0.5 -0.664789 -0.173862
226 1 0.734653 0.380062 0.5 0.380395 0.247182
227 1 0.056904 0.751228 0.5 -0.172268 -0.692287
228 1 0.212177 0.404577 0.5 -0.165075 -0.221891
229 1 0.67036 0.354126 0.5 0.0567776 -0.69901
230 1 0.999197 0.554761 0.5 -0.144841 -0.106856
231 1 0.807389 0.370996 0.5 -0.771922 -0.0811362
232 1 0.753629 0.459475 0.5 0.487054 -0.420448
233 1 0.802914 0.0739816 0.5 0.0503392 0.946701
234 1 0.432525 0.238891 0.5 0.461752 0.171376
235 1 0.960618 0.662086 0.5 -0.509122 0.744813
236 1 0.981742 0.329188 0.5 -0.0707116 -0.429836
237 1 0.728678 0.794274 0.5 -0.075273 0.228005
238 1 0.0858733 0.141126 0.5 0.229172 -0.445885
239 1 0.857948 0.431506 0.5 -0.588739 0.616132
240 1 0.506824 0.410597 0.5 0.531316 0.123353
241 1 0.739034 0.596041 0.5 -0.663282 0.145215
242 1 0.0337479 0.400786 0.5 -0.016023 0.126731
243 1 0.780561 0.323028 0.5 -0.20007 0.197137
244 1 0.852545 0.844633 0.5 0.137822 -0.213538
245 1 0.529691 0.531298 0.5 0 0
246 1 0.62791 0.80095 0.5 -0.109955 -0.574281
247 1 0.786585 0.499145 0.5 -0.0422932 -0.796729
248 1 0.685035 0.540207 0.5 0.374818 0.775365
249 1 0.744155 0.625712 0.5 -0.594994 -0.028898
250 1 0.804815 0.171939 0.5 -0.201855 -0.911568
251 1 0.792598 0.854399 0.5 0.652962 -0.670862
252 1 0.878512 0.0309411 0.5 -0.291865 -0.288277
253 1 0.932173 0.970584 0.5 0.491258 -0.732966
254 1 0.323229 0.954006 0.5 0.318694 -0.218806
255 1 0.880556 0.343563 0.5 0.370483 -0.822293
256 1 0.460279 0.854826 0.5 0.420287 -0.248516
257 1 0.390167 0.805505 0.5 0.390929 -0.0400933
258 1 0.565783 0.178904 0.5 0.439935 0.331255
259 1 0.119254 0.00017 0.5 0.35107 -0.821041
260 1 0.308331 0.153952 0.5 -0.120226 -0.0198305
261 1 0.807066 0.195054 0.5 0.325771 0.575723
262 1 0.666823 0.304969 0.5 0.362406 -0.0210384
263 1 0.547004 0.949064 0.5 -0.173848 -0.620964
264 1 0.727105 0.327362 0.5 0.109655 -0.264562
265 1 0.751774 0.135158 0.5 -0.669585 -0.27289
266 1 0.951671 0.896643 0.5 0.290068 0.118817
267 1 0.322194 0.328319 0.5 -0.102175 0.218774
268 1 0.935594 0.233057 0.5 -0.0794379 -0.319142
269 1 0.50766 0.279738 0.5 0.129673 0.0749025
270 1 0.881964 0.895028 0.5 0.12725 0.512845
271 1 0.135594 0.287826 0.5 -0.754255 0.289195
272 1 0.717994 0.896526 0.5 -0.18444 -0.00559732
273 1 0.36971 0.894978 0.5 -0.728082 0.0696904
274 1 0.873524 0.299662 0.5 -0.0397134 0.64122
275 1 0.686144 0.908306 0.5 -0.259449 0.591265
276 1 0.305445 0.51286 0.5 -0.422757 0.107423
277 1 0.932913 0.473108 0.5 -0.205154 -0.181063
278 1 0.867041 0.0251122 0.5 -0.246377 -0.29006
279 1 0.702146 0.231162 0.5 0.413728 -0.214952
280 1 0.945659 0.903955 0.5 0.018004 -0.0145302
281 1 0.48979 0.784889 0.5 -0.889287 0.27939
282 1 0.160725 0.787066 0.5 -0.581817 -0.609189
283 1 0.817244 0.92762 0.5 0.326973 0.617667
284 1 0.842557 0.856928 0.5 0.0743972 0.649737
285 1 0.606264 0.915936 0.5 0.598559 0.0274741
286 1 0.921789 0.332324 0.5 -0.23294 -0.592029
287 1 0.495109 0.914322 0.5 0.291023 -0.732631
288 1 0.885765 0.361428 0.5 0.368954 -0.0881215
289 1 0.381988 0.383428 0.5 -0.294275 -0.499145
290 1 0.973486 0.0567298 0.5 -0.563899 -0.456313
291 1 0.919761 0.504746 0.5 -0.126847 -0.0833087
292 1 0.301798 0.170042 0.5 -0.613327 0.272806
293 1 0.475251 0.382341 0.5 0.337137 0.523872
294 1 0.38983 0.314144 0.5 0.607856 -0.0506294
295 1 0.518955 0.33609 0.5 -0.129473 0.0544662
296 1 0.431546 0.867468 0.5 0.57272 -0.388726
297 1 0.0294798 0.589378 0.5 -0.638191 0.495988
298 1 0.77734 0.562001 0.5 0.143663 0.342567
299 1 0.200013 0.586663 0.5 0.117486 -0.77532
300 1 0.623645 0.561341 0.5 -0.0577535 -0.253629
301 1 0.831038 0.413841 0.5 -0.473793 -0.826844
302 1 0.00548025 0.518259 0.5 0.163482 -0.165989
303 1 0.444567 0.561814 0.5 -0.176005 -0.648176
304 1 0.866498 0.415746 0.5 -0.50359 -0.382025
305 1 0.184944 0.494788 0.5 0.202265 -0.424124
306 1 0.82697 0.723833 0.5 -0.144076 0.0835043
307 1 0.0710302 0.560149 0.5 -0.0510376 -0.133359
308 1 0.205109 0.63503 0.5 -0.387992 -0.0363239
309 1 0.553132 0.636757 0.5 -0.0966244 -0.0296497
310 1 0.838586 0.493012 0.5 0.798113 -0.276491
311 1 0.912764 0.836225 0.5 -0.176749 0.571666
312 1 0.671263 0.959882 0.5 0.323975 0.276643
313 1 0.549559 0.459527 0.5 -0.826829 0.349675
314 1 0.989255 0.131968 0.5 0.777944 0.384405
315 1 0.891883 0.241604 0.5 0.435707 -0.509542
316 1 0.0580365 0.23613 0.5 -0.132693 0.0540489
317 1 0.887969 0.269505 0.5 0.141662 0.0404963
318 1 0.388815 0.39166 0.5 -0.147681 -0.352399
319 1 0.404648 0.405388 0.5 0.246512 0.147164
320 1 0.116928 0.797344 0.5 0.0947561 -0.0015018
321 1 0.0658132 0.152806 0.5 -0.364537 0.27935
322 1 0.612261 0.906421 0.5 0.844236 -0.299065
323 1 0.872978 0.288582 0.5 -0.156751 -0.150094
324 1 0.080377 0.492511 0.5 -0.550667 -0.146389
325 1 0.737669 0.93847 0.5 -0.132506 0.195681
326 1 0.978012 0.412844 0.5 -0.0528589 0.363087
327 1 0.852876 0.460136 0.5 0 0
328 1 0.930564 0.327238 0.5 -0.477657 -0.658046
329 1 0.0716669 0.429665 0.5 -0.280997 -0.023819
330 1 0.76726 0.273346 0.5 0.74793 -0.375404
331 1 0.870081 0.373292 0.5 0.131972 -0.845335
332 1 0.81592 0.366614 0.5 -0.46389 -0.26474
333 1 0.102557 0.38315 0.5 -0.674358 0.0791827
334 1 0.922051 0.424596 0.5 0.227652 -0.485963
335 1 0.527031 0.738283 0.5 0.306699 -0.253801
336 1 0.668209 0.363634 0.5 0.184427 -0.227402
337 1 0.528592 0.375181 0.5 -0.348812 -0.218029
338 1 0.962356 0.263712 0.5 -0.210011 -0.790238
339 1 0.787415 0.27376 0.5 0.0839136 0.648287
340 1 0.0970943 0.343301 0.5 -0.141976 -0.566738
341 1 0.537783 0.566639 0.5 -0.322678 -0.326859
342 1 0.080895 0.981432 0.5 0.487364 0.0617256
343 1 0.868994 0.499039 0.5 -0.15129 -0.0638359
344 1 0.928958 0.390425 0.5 -0.438624 -0.093373
345 1 0.128425 0.242047 0.5 -0.0256041 0.497073
346 1 0.92932 0.919526 0.5 -0.116352 -0.234927
347 1 0.525797 0.817992 0.5 -0.290819 -0.664372
348 1 0.634387 0.9609 0.5 -0.379181 0.282618
349 1 0.461965 0.195267 0.5 -0.261858 -0.517438
350 1 0.325619 0.530814 0.5 -0.137842 0.022668
351 1 0.822557 0.669688 0.5 0.300995 0.339979
352 1 0.187819 0.272903 0.5 -0.199452 0.435204
353 1 0.70817 0.718337 0.5 -0.201857 0.258529
354 1 0.0499939 0.602505 0.5 -0.722825 0.192997
355 1 0.117895 0.225997 0.5 -0.222534 -0.72988
356 1 0.914689 0.165571 0.5 0.73789 0.232589
357 1 0.951371 0.479666 0.5 -0.236844 0.0551157
358 1 0.676416 0.38586 0.5 0.180098 -0.0127515
359 1 0.981997 0.909792 0.5 0.222953 0.142414
360 1 0.704292 0.0624041 0.5 0.0344218 -0.290215
361 1 0.447827 0.552158 0.5 0.441945 -0.460894
362 1 0.327922 0.731527 0.5 0.0518778 -0.183519
363 1 0.975429 0.501596 0.5 -0.445231 -0.314046
364 1 0.742292 0.887757 0.5 -0.877864 -0.0937837
365 1 0.194825 0.556186 0.5 0.107063 0.45216
366 1 0.367126 0.741212 0.5 0.173292 -0.890438
367 1 0.763424 0.17637 0.5 0.648738 0.624853
368 1 0.101127 0.420465 0.5 0.455488 0.596405
369 1 0.897683 0.750472 0.5 0.455808 -0.418901
370 1 0.594127 0.0310586 0.5 0 0
371 1 0.175048 0.88575 0.5 -0.639917 -0.590516
372 1 0.0705391 0.657996 0.5 -0.0593318 -0.767949
373 1 0.808209 0.244226 0.5 0.83926 0.39376
374 1 0.211927 0.628506 0.5 0.321435 -0.447629
375 1 0.969771 0.309227 0.5 0.390001 0.0304562
376 1 0.325276 0.377779 0.5 -0.245107 0.68382
377 1 0.866825 0.403427 0.5 -0.319546 0.34902
378 1 0.580821 0.648608 0.5 -0.546282 0.804255
379 1 0.102033 0.938479 0.5 0.043439 -0.285612
380 1 0.0385682 0.592989 0.5 -0.126156 0.509887
381 1 0.0645644 0.718939 0.5 -0.16039 -0.5924
382 1 0.245822 0.649565 0.5 -0.538235 -0.597158
383 1 0.158627 0.55773 0.5 0.327055 0.045297
384 1 0.138 0.316737 0.5 0.567818 0.141888
385 1 0.94051 0.00211996 0.5 0.0834112 0.768975
386 1 0.210179 0.543715 0.5 0.200226 0.291863
387 1 0.71996 0.507405 0.5 -0.0929448 -0.564934
388 1 0.593609 0.316561 0.5 -0.16048 -0.100331
389 1 0.724571 0.262236 0.5 -0.275583 -0.323255
390 1 0.647514 0.235267 0.5 0.477491 -0.349982
391 1 0.976797 0.448808 0.5 -0.0964374 -0.0443193
392 1 0.854427 0.638522 0.5 -0.56546 -0.350468
393 1 0.42729 0.476459 0.5 0.418388 -0.565232
394 1 0.578338 0.686409 0.5 -0.431706 -0.101078
395 1 0.492927 0.304383 0.5 0.130538 -0.146799
396 1 0.942885 0.122336 0.5 -0.23365 0.218266
397 1 0.908539 0.256185 0.5 -0.2731 -0.492807
398 1 0.231229 0.405274 0.5 -0.591273 0.0105107
399 1 0.390805 0.547165 0.5 -0.228576 -0.242447
400 1 0.963072 0.331751 0.5 0.539699 0.00541579
401 1 0.334181 0.173056 0.5 0.31977 -0.563293
402 1 0.9117 0.544118 0.5 0 0
403 1 0.134319 0.790626 0.5 0.285264 0.289416
404 1 0.788502 0.224834 0.5 0.388349 0.644459
405 1 0.23468 0.167662 0.5 -0.0375529 0.172277
406 1 0.860197 0.761267 0.5 0.808504 -0.401304
407 1 0.494189 0.722657 0.5 -0.200326 0.251835
408 1 0.091352 0.620433 0.5 0.471972 -0.478171
409 1 0.808907 0.653538 0.5 -0.295438 0.395365
410 1 0.674114 0.241442 0.5 0.925201 -0.246193
411 1 0.308546 0.414883 0.5 -0.1815 -0.409808
412 1 0.843718 0.98301 0.5 -0.246898 0.157284
413 1 0.980387 0.309424 0.5 0.817278 -0.215478
414 1 0.844437 0.716827 0.5 -0.430482 0.0199808
415 1 0.640005 0.214466 0.5 0.357911 0.61622
416 1 0.833206 0.461693 0.5 -0.0373145 0.126638
417 1 0.911763 0.666202 0.5 -0.288286 -0.0640203
418 1 0.712602 0.473557 0.5 0.31095 -0.34439
419 1 0.191492 0.621187 0.5 0.134452 -0.679543
420 1 0.298661 0.38754 0.5 -0.239163 0.8204
421 1 0.724556 0.980024 0.5 0.176302 0.172485
422 1 0.97242 0.856455 0.5 0.100748 -0.926668
423 1 0.96218 0.420505 0.5 0.527078 -0.71968
424 1 0.174545 0.549922 0.5 0 0
425 1 0.350695 0.0681178 0.5 0.447558 -0.776637
426 1 0.508849 0.14329 0.5 0.303778 0.724867
427 1 0.490573 0.568212 0.5 0.0632945 -0.322473
428 1 0.0257173 0.958064 0.5 0.434527 0.189554
429 1 0.716087 0.333918 0.5 -0.289236 -0.312756
430 1 0.0367108 0.681115 0.5 0.161678 -0.297312
431 1 0.906486 0.0890357 0.5 -0.427904 0.709484
432 1 0.741368 0.351819 0.5 -0.102628 -0.169729
433 1 0.260784 0.313282 0.5 -0.45007 0.144262
434 1 0.829467 0.051164 0.5 0.0704368 -0.473193
435 1 0.562874 0.761596 0.5 0.408577 -0.0224855
436 1 0.101067 0.221682 0.5 -0.533592 -0.376962
437 1 0.970192 0.642765 0.5 0.534074 -0.00965126
438 1 0.699339 0.372246 0.5 0.186383 0.289353
439 1 0.110297 0.760238 0.5 0.122614 -0.218649
440 1 0.828484 0.831925 0.5 0.262542 0.191738
441 1 0.633847 0.889296 0.5 0.234323 0.685514
442 1 0.996173 0.544362 0.5 -0.170159 0.390218
443 1 0.637036 0.970605 0.5 0 0
444 1 0.0421926 0.546402 0.5 0.677299 -0.481657
445 1 0.930228 0.431392 0.5 -0.0927724 -0.754091
446 1 0.379369 0.712283 0.5 0.0146806 -0.206416
447 1 0.76045 0.253753 0.5 -0.416633 0.632408
448 1 0.237974 0.643111 0.5 0 0
449 1 0.94606 0.39606 0.5 -0.0266073 -0.871727
450 1 0.790729 0.202939 0.5 0.815671 0.109559
451 1 0.672738 0.153687 0.5 -0.0990523 -0.0799312
452 1 0.0888189 0.88499 0.5 0 0
453 1 0.801663 0.782091 0.5 0.0242142 -0.248238
454 1 0.713305 0.364025 0.5 0.247254 -0.0729602
455 1 0.42909 0.126389 0.5 -0.2955 -0.465386
456 1 0.762466 0.234763 0.5 0.254205 0.529365
457 1 0.801922 0.977713 0.5 -0.366843 -0.716809
458 1 0.0153065 0.194828 0.5 -0.767646 0.372388
459 1 0.274903 0.649261 0.5 -0.0957168 -0.0121698
460 1 0.374838 0.804094 0.5 -0.0666803 0.578576
461 1 0.108367 0.673263 0.5 0.524029 0.321399
462 1 0.415579 0.405634 0.5 0.289522 0.267081
463 1 0.149608 0.302311 0.5 -0.217759 0.322515
464 1 0.978905 0.806067 0.5 -0.0526531 0.0638587
465 1 0.158501 0.796666 0.5 -0.563657 -0.421472
466 1 0.583891 0.0938896 0.5 -0.0691437 -0.19362
467 1 0.1979 0.989166 0.5 0.255486 -0.212903
468 1 0.576173 0.676463 0.5 0.146999 0.749055
469 1 0.74106 0.0989001 0.5 -0.827682 0.305107
470 1 0.970907 0.214323 0.5 0.400093 0.218321
471 1 0.637154 0.788602 0.5 0.182814 -0.0349624
472 1 0.11946 0.576378 0.5 0.364082 0.106074
473 1 0.982127 0.461683 0.5 0.3655 0.343037
474 1 0.558906 0.608274 0.5 0.21628 0.1535
475 1 0.687469 0.826726 0.5 -0.610666 0.50564
476 1 0.00915579 0.110042 0.5 0.443624 -0.424288
477 1 0.00940642 0.469587 0.5 -0.119263 -0.229269
478 1 0.164726 0.759379 0.5 0.517382 -0.361691
479 1 0.105391 0.835967 0.5 -0.0686304 0.0403172
480 1 0.415656 0.192761 0.5 -0.276976 -0.461518
481 1 0.0871404 0.276672 0.5 -0.341483 0.652737
482 1 0.844606 0.651358 0.5 0.266032 0.558954
483 1 0.630313 0.418827 0.5 -0.182764 0.743075
484 1 0.0691632 0.162458 0.5 -0.101449 0.877968
485 1 0.669727 0.464904 0.5 0.109235 -0.27404
486 1 0.744025 0.40951 0.5 0.277109 -0.158687
487 1 0.803953 0.410758 0.5 0.167947 0.286013
488 1 0.796002 0.0546357 0.5 -0.0480575 0.282401
489 1 0.354748 0.586472 0.5 0.704066 0.0715415
490 1 0.817429 0.659621 0.5 -0.0271508 0.192966
491 1 0.141305 0.408157 0.5 -0.396102 -0.565106
492 1 0.632518 0.16379 0.5 -0.692975 0.37699
493 1 0.74416 0.92057 0.5 0 0
494 1 0.867188 0.936973 0.5 0 0
495 1 0.85064 0.54923 0.5 0.202013 0.767723
496 1 0.171343 0.511356 0.5 -0.0971063 -0.769532
497 1 0.697986 0.21403 0.5 -0.573438 -0.576363
498 1 0.662667 0.47344 0.5 0.137714 0.478638
499 1 0.0302149 0.610474 0.5 -0.633645 -0.478872
500 1 0.85938 0.273244 0.5 -0.17278 -0.307564
501 1 0.515282 0.0514935 0.5 0.173209 -0.018737
502 1 0.9751 0.584355 0.5 0.147079 0.467372
503 1 0.260443 0.289433 0.5 -0.247457 0.259976
504 1 0.677611 0.638659 0.5 0.0191616 0.33881
505 1 0.812014 0.129665 0.5 0.157812 -0.412424
506 1 0.980104 0.42505 0.5 -0.384764 -0.209156
507 1 0.827588 0.660054 0.5 0.844459 -0.0368684
508 1 0.512579 0.239645 0.5 -0.208125 0.727124
509 1 0.783151 0.52029 0.5 -0.55936 -0.649327
510 1 0.676094 0.202443 0.5 0.077123 -0.00633406
511 1 0.539294 0.404473 0.5 -0.194639 -0.614389
512 1 0.0227768 0.0316851 0.5 -0.283392 -0.408822
513 1 0.727979 0.5012 0.5 -0.445051 -0.309962
514 1 0.796667 0.45787 0.5 0.218726 0.109307
515 1 0.864976 0.262665 0.5 0.399028 -0.361181
516 1 0.757932 0.49613 0.5 0.0912447 -0.0967112
517 1 0.946852 0.991559 0.5 -0.0628681 0.0921334
518 1 0.0818045 0.427142 0.5 0.58 0.268806
519 1 0.626487 0.408838 0.5 0.418326 0.380633
520 1 0.948283 0.0571206 0.5 -0.323962 0.644104
521 1 0.950782 0.547945 0.5 -0.665006 -0.377535
522 1 0.915862 0.796246 0.5 0.629656 -0.402791
523 1 0.894157 0.30694 0.5 -0.156348 0.819606
524 1 0.0714496 0.042632 0.5 -0.702764 -0.357591
525 1 0.885237 0.863766 0.5 0.151355 0.277712
526 1 0.0620202 0.631085 0.5 0.567156 -0.139057
527 1 0.967792 0.3228 0.5 0.270474 -0.163688
528 1 0.785149 0.194861 0.5 0.446457 -0.124066
529 1 0.0783069 0.999793 0.5 0.489266 -0.248541
530 1 0.699486 0.283477 0.5 0.459806 0.00110168
531 1 0.707873 0.428471 0.5 0.125756 0.138977
532 1 0.55785 0.453936 0.5 -0.913246 0.272015
533 1 0.811467 0.463386 0.5 0.413442 0.130675
534 1 0.174462 0.718974 0.5 0 0
535 1 0.568231 0.484638 0.5 -0.441776 -0.0521954
536 1 0.214667 0.535047 0.5 0.114999 -0.787592
537 1 0.16841 0.52224 0.5 -0.117561 -0.436128
538 1 0.79987 0.987026 0.5 -0.415286 -0.744715
539 1 0.446521 0.307476 0.5 -0.0748831 -0.694134
540 1 0.880209 0.220217 0.5 -0.184837 0.361794
541 1 0.0344177 0.193125 0.5 0.0204478 0.510862
542 1 0.0837727 0.654528 0.5 0.597088 -0.254023
543 1 0.882411 0.130199 0.5 -0.577337 0.474586
544 1 0.911451 0.878636 0.5 -0.307177 -0.46362
545 1 0.711677 0.000646961 0.5 0.0154711 0.541161
546 1 0.963754 0.450435 0.5 -0.0693048 -0.688889
547 1 0.916346 0.263508 0.5 0.300436 -0.460404
548 1 0.172232 0.72818 0.5 0.189177 -0.353292
549 1 0.80493 0.68616 0.5 0.132876 0.43333
550 1 0.498572 0.968078 0.5 -0.0135879 -0.114728
551 1 0.875534 0.590594 0.5 -0.428476 -0.131707
552 1 0.888029 0.938138 0.5 0.578634 0.137508
553 1 0.782772 0.705583 0.5 -0.175452 0.389514
554 1 0.0297042 0.911698 0.5 -0.364736 -0.115633
555 1 0.158657 0.903169 0.5 0.607093 -0.302201
556 1 0.213666 0.333992 0.5 0.381477 0.256524
557 1 0.0661916 0.54613 0.5 -0.222654 0.233272
558 1 0.953978 0.830413 0.5 0.441954 -0.277317
559 1 0.704621 0.261998 0.5 -0.222514 -0.736976
560 1 0.827843 0.567955 0.5 -0.170242 -0.203097
561 1 0.591814 0.715988 0.5 0.00281266 0.136211
562 1 0.383221 0.278118 0.5 0.608385 -0.127723
563 1 0.438991 0.172061 0.5 0.582569 0.152432
564 1 0.0309399 0.528374 0.5 0.623778 0.141981
565 1 0.500894 0.359786 0.5 -0.508772 -0.341193
566 1 0.929938 0.604513 0.5 -0.678149 0.283446
567 1 0.581797 0.17412 0.5 0.103824 0.304573
568 1 0.626873 0.0510296 0.5 0.761311 -0.0348114
569 1 0.106105 0.595659 0.5 0.666781 -0.213555
570 1 0.941794 0.651144 0.5 0.0099133 0.45035
571 1 0.660853 0.715111 0.5 -0.541479 0.228818
572 1 0.179946 0.902345 0.5 0.192703 -0.596118
573 1 0.30211 0.0182205 0.5 0.00288003 -0.449959
574 1 0.202832 0.812574 0.5 -0.209571 -0.0934098
575 1 0.961977 0.315089 0.5 -0.0947033 -0.112118
576 1 0.7093 0.39652 0.5 -0.38947 -0.446798
577 1 0.902021 0.777224 0.5 0.0181555 -0.224066
578 1 0.421882 0.0308671 0.5 -0.290598 0.0263977
579 1 0.863197 0.365676 0.5 0.19717 -0.908781
580 1 0.126852 0.0745024 0.5 -0.208952 -0.330414
581 1 0.0191274 0.71962 0.5 0.280494 -0.338861
582 1 0.689161 0.597199 0.5 -0.165211 0.744618
583 1 0.772008 0.0837924 0.5 0.356659 -0.662972
584 1 0.241039 0.315807 0.5 -0.416907 -0.215308
585 1 0.776527 0.651067 0.5 0.258282 0.0676388
586 1 0.206561 0.688984 0.5 -0.387244 -0.315742
587 1 0.788892 0.360779 0.5 -0.312548 0.681093
588 1 0.134271 0.608224 0.5 0.182662 0.765785
589 1 0.444943 0.788514 0.5 -0.447794 -0.533508
590 1 0.607138 0.33768 0.5 -0.595506 -0.463017
591 1 0.251076 0.575166 0.5 0.0838816 0.0873684
592 1 0.826159 0.291515 0.5 -0.577691 0.150743
593 1 0.122522 0.371546 0.5 -0.624614 -0.0925686
594 1 0.516271 0.906414 0.5 -0.924834 0.026078
595 1 0.898169 0.380564 0.5 0.484785 -0.567473
596 1 0.0336819 0.658481 0.5 0.581855 -0.600475
597 1 0.910739 0.34659 0.5 -0.565685 -0.325553
598 1 0.688475 0.45997 0.5 0.0900144 -0.900967
599 1 0.705678 0.706739 0.5 0.501479 -0.123097
600 1 0.853519 0.690327 0.5 -0.758227 0.375404
601 1 0.0296568 0.986356 0.5 0.0273195 0.528454
602 1 0.744816 0.766394 0.5 0.427739 0.572938
603 1 0.917059 0.28312 0.5 0.585368 -0.354731
604 1 0.356824 0.683473 0.5 -0.589149 -0.770905
605 1 0.247527 0.00125844 0.5 -0.0889591 -0.138065
606 1 0.814609 0.00559306 0.5 0.384438 -0.638599
607 1 0.876347 0.00887061 0.5 -0.123212 0.320281
608 1 0.856209 0.358509 0.5 0.0757822 -0.813475
609 1 0.678747 0.547795 0.5 0.245385 0.269569
610 1 0.570311 0.823648 0.5 -0.0385922 -0.538406
611 1 0.380268 0.574111 0.5 -0.787977 0.50398
612 1 0.0928013 0.537911 0.5 -0.0622741 -0.269825
613 1 0.297659 0.606736 0.5 0.0657709 -0.342174
614 1 0.106814 0.917391 0.5 0.149927 -0.572967
615 1 0.156697 0.497162 0.5 0.360528 0.319627
616 1 0.269822 0.562273 0.5 -0.0572549 -0.233731
617 1 0.136448 0.346655 0.5 0.0603645 -0.134586
618 1 0.424759 0.522124 0.5 -0.14074 -0.0699264
619 1 0.475033 0.542915 0.5 0 0
620 1 0.99025 0.941639 0.5 0.0259958 -0.731556
621 1 0.984375 0.360636 0.5 0.391414 0.0336556
622 1 0.107486 0.612206 0.5 0.539702 -0.153848
623 1 0.161565 0.963171 0.5 0.099355 -0.364601
624 1 0.979183 0.762415 0.5 -0.0851764 -0.310063
625 1 0.991145 0.666015 0.5 -0.610848 -0.0237243
626 1 0.18454 0.655017 0.5 -0.465251 -0.596895
627 1 0.572319 0.718527 0.5 -0.0548259 0.17541
628 1 0.137827 0.619139 0.5 -0.000273021 0.134212
629 1 0.213615 0.227666 0.5 -0.273111 0.761103
630 1 0.840155 0.0211281 0.5 0.60247 -0.216668
631 1 0.510287 0.390344 0.5 0.148782 0.471213
632 1 0.87043 0.459929 0.5 -0.715237 0.176701
633 1 0.926918 0.567448 0.5 -0.606707 -0.00118606
634 1 0.0834245 0.481618 0.5 -0.749715 0.141011
635 1 0.969224 0.574158 0.5 0.455663 0.320553
636 1 0.96009 0.641682 0.5 -0.0596552 -0.104548
637 1 0.862497 0.779537 0.5 0.785038 -0.468095
638 1 0.978631 0.996867 0.5 0.145406 -0.154704