# LAMMPS data file written by Ovito 3.7.11
9322 atoms
1 atom types
-58.36 58.36 xlo xhi
-58.36 58.36 ylo yhi
-0.5 0.5 zlo zhi

Atoms  # atomic

1 1 57.15941808 -4.9133284 0.0
2 1 32.54165272 27.13658296 0.0
3 1 -44.6203052 -58.0602723776 0.0
4 1 -53.16438428 -38.07768232 0.0
5 1 38.5543668 58.26032112 0.0
6 1 -15.74307688 -39.54450256 0.0
7 1 -19.05197216 -20.26551 0.0
8 1 41.17298 26.5211184 0.0
9 1 53.76520048 50.08291792 0.0
10 1 -10.88052168 30.17457112 0.0
11 1 -5.56497616 44.10230184 0.0
12 1 49.24872008 9.10987928 0.0
13 1 12.10304696 -6.23798368 0.0
14 1 54.69919392 -28.26584896 0.0
15 1 29.65353304 -23.86013584 0.0
16 1 57.61906144 -6.72937488 0.0
17 1 33.93330528 50.89412192 0.0
18 1 29.88172064 44.97023176 0.0
19 1 42.40005736 23.6959108 0.0
20 1 49.05764944 28.94982816 0.0
21 1 54.07602584 -42.21155456 0.0
22 1 -21.6358028 -12.39519712 0.0
23 1 43.06115944 -54.630550888 0.0
24 1 -54.30100364 15.07800632 0.0
25 1 13.73864432 -33.4647912 0.0
26 1 -44.87954032 -28.05727032 0.0
27 1 5.47346768 50.79024112 0.0
28 1 30.732376 -56.29388092 0.0
29 1 -46.3962 50.75849328 0.0
30 1 30.13220176 -51.514523736 0.0
31 1 -38.10627872 -35.04541344 0.0
32 1 55.78142176 -48.750827576 0.0
33 1 49.31443344 -40.28800896 0.0
34 1 37.5826728 -50.61977156 0.0
35 1 21.6299668 -18.25115624 0.0
36 1 -56.68997024 22.71616312 0.0
37 1 -21.10425992 -44.28216736 0.0
38 1 -49.388235496 41.05602656 0.0
39 1 -6.87912664 -6.498386 0.0
40 1 52.49120168 -26.8140856 0.0
41 1 53.05262488 22.41537568 0.0
42 1 11.29476096 -38.57374232 0.0
43 1 53.25338328 -44.7323564 0.0
44 1 -51.207305024 22.3151132 0.0
45 1 -47.888897064 -12.2754424 0.0
46 1 0.21628216 24.94913344 0.0
47 1 20.47583944 -10.8625468 0.0
48 1 35.81681592 -45.6363528 0.0
49 1 44.04160744 40.82410392 0.0
50 1 55.97225896 -43.46606112 0.0
51 1 50.30153448 -9.49657264 0.0
52 1 42.86226856 11.32207344 0.0
53 1 41.13527944 57.219062 0.0
54 1 58.0629476 -33.8406296 0.0
55 1 38.65147784 -29.81857512 0.0
56 1 -49.437724776 -3.9819028 0.0
57 1 -39.31608152 -30.09321728 0.0
58 1 37.71444968 12.53549456 0.0
59 1 -53.379312488 -47.183406368 0.0
60 1 50.51688288 57.50070736 0.0
61 1 48.04942208 -16.921482 0.0
62 1 -58.0023512448 7.75160864 0.0
63 1 52.04463096 -15.05991472 0.0
64 1 31.6871456 -41.62246872 0.0
65 1 -55.395510424 -19.79641232 0.0
66 1 -41.30639096 -20.65932328 0.0
67 1 51.19595984 6.3139684 0.0
68 1 7.48105168 -58.3498931102 0.0
69 1 4.39812632 47.3830676 0.0
70 1 53.74068928 -58.0592429072 0.0
71 1 22.00195344 0.87388264 0.0
72 1 31.943346 -19.68646208 0.0
73 1 36.59253704 12.54810032 0.0
74 1 -10.6057628 -49.13042436 0.0
75 1 35.99096216 -33.85486944 0.0
76 1 25.9900424 43.37992176 0.0
77 1 -39.82533088 -36.71917824 0.0
78 1 44.28018312 -17.22238616 0.0
79 1 10.0414216 2.18744952 0.0
80 1 -48.46687116 -32.8275 0.0
81 1 43.42427536 35.88428008 0.0
82 1 40.0950708 -24.797164 0.0
83 1 -55.164393152 -9.79887744 0.0
84 1 55.10911456 3.03401968 0.0
85 1 -45.76742936 -35.06537256 0.0
86 1 24.32246376 -30.47022288 0.0
87 1 43.03606464 -58.2938280471 0.0
88 1 32.19522776 44.97711824 0.0
89 1 38.05258752 56.24199888 0.0
90 1 -42.57723832 6.91717736 0.0
91 1 -37.40012272 50.71974224 0.0
92 1 20.86159904 43.09407448 0.0
93 1 52.35160456 -45.77653352 0.0
94 1 25.08441192 26.52216888 0.0
95 1 39.80583864 -29.2418616 0.0
96 1 50.41031752 -49.571906088 0.0
97 1 10.5608256 -1.49203176 0.0
98 1 43.41960656 37.00327472 0.0
99 1 14.87526368 -32.36365472 0.0
100 1 51.3270364 -46.836596232 0.0
101 1 53.45215744 -25.04974608 0.0
102 1 -8.63774688 55.3416208 0.0
103 1 48.22251784 -47.666942312 0.0
104 1 51.08460896 -44.66127392 0.0
105 1 24.82681088 17.55597192 0.0
106 1 40.13137072 45.27428736 0.0
107 1 28.7463852 -24.9862504 0.0
108 1 -55.775609104 -3.69173688 0.0
109 1 10.99922592 -34.31603016 0.0
110 1 18.56583336 3.83098384 0.0
111 1 -12.04818856 -57.3766036528 0.0
112 1 46.99625752 -36.36213176 0.0
113 1 41.3147948 35.75635496 0.0
114 1 34.17876744 43.75692736 0.0
115 1 -34.9640596 -15.0994828 0.0
116 1 12.23820872 -7.4397328 0.0
117 1 30.98880984 -4.51507976 0.0
118 1 40.6290648 -6.02146808 0.0
119 1 -38.60945864 46.10183216 0.0
120 1 33.76487832 -20.74674656 0.0
121 1 -48.117609904 -34.65685256 0.0
122 1 -36.51655232 -17.70980888 0.0
123 1 -31.47284768 11.83003888 0.0
124 1 -24.62651936 -13.29802632 0.0
125 1 37.84634328 -25.34773224 0.0
126 1 28.0472324 39.21488528 0.0
127 1 -24.71709408 -30.01466472 0.0
128 1 45.9853456 51.97389864 0.0
129 1 -37.27068024 -1.06320248 0.0
130 1 -41.28724888 -13.2949916 0.0
131 1 -56.891358928 -33.90902752 0.0
132 1 37.2348472 -33.10914536 0.0
133 1 33.19540144 -21.77504976 0.0
134 1 26.01478704 52.40167744 0.0
135 1 56.78988256 -22.2018948 0.0
136 1 -31.19960616 -36.81979088 0.0
137 1 55.86557688 54.86645368 0.0
138 1 45.59515064 -17.40190152 0.0
139 1 50.04708488 -21.95293104 0.0
140 1 45.83290928 -15.14745472 0.0
141 1 -33.98431192 -1.70096056 0.0
142 1 -54.490626952 38.02819304 0.0
143 1 -47.68834876 53.81165504 0.0
144 1 -43.58488208 -41.26005312 0.0
145 1 57.36717968 -47.703545704 0.0
146 1 -51.308524608 -38.56580536 0.0
147 1 33.67325312 -40.42748936 0.0
148 1 48.9868004 -11.86096968 0.0
149 1 8.4050072 19.52527176 0.0
150 1 -23.79232152 -23.91324344 0.0
151 1 20.33810984 -29.94579992 0.0
152 1 48.97699592 -44.13089824 0.0
153 1 -41.59620672 -31.9731096 0.0
154 1 -47.920084648 -23.37329672 0.0
155 1 -55.560809288 -32.80228848 0.0
156 1 45.66996816 44.32138528 0.0
157 1 42.70107824 53.9409808 0.0
158 1 -25.62809368 -53.589431832 0.0
159 1 -38.47896568 -47.139659712 0.0
160 1 47.46862336 53.99011992 0.0
161 1 25.75041624 -20.67041168 0.0
162 1 43.68607832 -42.0110296 0.0
163 1 13.42548456 57.54844584 0.0
164 1 45.36217752 -24.07968616 0.0
165 1 30.30354672 -17.76816888 0.0
166 1 8.27124608 57.13724128 0.0
167 1 18.52276368 -22.84712296 0.0
168 1 -53.773849432 56.2782988 0.0
169 1 53.66540488 -11.00739632 0.0
170 1 29.8581432 36.19008648 0.0
171 1 50.53007224 43.14543128 0.0
172 1 53.12639192 -13.36350624 0.0
173 1 -50.172535536 46.58657032 0.0
174 1 40.98401032 -46.969587 0.0
175 1 43.06968 -41.10271456 0.0
176 1 8.80675744 5.81639104 0.0
177 1 57.5511304 14.41456984 0.0
178 1 -48.416366416 -43.07481568 0.0
179 1 -42.42293448 26.51516568 0.0
180 1 14.74103568 -56.42431552 0.0
181 1 18.38071544 -34.77625712 0.0
182 1 57.50759384 -45.32039176 0.0
183 1 32.1645304 43.75646048 0.0
184 1 29.35986552 43.25316384 0.0
185 1 32.83403632 -57.5186577288 0.0
186 1 -44.92634504 -44.18914152 0.0
187 1 37.31199912 -21.83667792 0.0
188 1 49.54367152 -48.777159608 0.0
189 1 -41.89092472 0.7347524 0.0
190 1 36.31696112 17.7624496 0.0
191 1 16.55626512 -13.35381848 0.0
192 1 2.19421928 -51.810700736 0.0
193 1 -52.4513418 20.39051712 0.0
194 1 48.14910096 35.91917936 0.0
195 1 -34.01244144 -14.59968776 0.0
196 1 53.116354 54.38031488 0.0
197 1 -7.77110088 44.36165368 0.0
198 1 23.66334592 -25.23112896 0.0
199 1 22.25138408 -56.119372848 0.0
200 1 6.55931384 -34.62685552 0.0
201 1 30.10874104 50.27842392 0.0
202 1 29.47833632 53.15043624 0.0
203 1 -55.631168104 4.59549984 0.0
204 1 36.16884344 -17.20522832 0.0
205 1 14.48833688 -27.88860992 0.0
206 1 29.88545568 -24.9319756 0.0
207 1 -46.1545896 19.21187856 0.0
208 1 4.35003768 54.72498904 0.0
209 1 26.55893568 20.52777984 0.0
210 1 2.95663432 -48.674971248 0.0
211 1 51.95428968 15.13298144 0.0
212 1 49.92779704 -31.53342536 0.0
213 1 54.15737968 -30.2427356 0.0
214 1 -51.816046512 -13.95340912 0.0
215 1 -41.11730456 -2.75307464 0.0
216 1 37.2867876 -39.76778792 0.0
217 1 21.27665536 -49.059937152 0.0
218 1 36.69279952 -28.06088864 0.0
219 1 47.57670608 36.9033624 0.0
220 1 -54.59017744 23.50519032 0.0
221 1 35.87692672 29.06783208 0.0
222 1 38.1487648 -19.037032 0.0
223 1 49.23751496 -37.87085448 0.0
224 1 29.71481104 -9.02549072 0.0
225 1 54.55702896 -48.688020544 0.0
226 1 28.66386416 -22.09637992 0.0
227 1 -24.54633272 19.96017048 0.0
228 1 -52.318876272 -46.878276944 0.0
229 1 40.78348536 -32.92951328 0.0
230 1 53.93409432 3.60699816 0.0
231 1 53.45635936 -39.75121368 0.0
232 1 58.00447088 3.81102472 0.0
233 1 38.64575856 51.31699848 0.0
234 1 51.73135448 -11.02583808 0.0
235 1 43.37221824 -53.486309712 0.0
236 1 -50.15756036 -38.68240864 0.0
237 1 -23.8669056 51.43780368 0.0
238 1 -6.01528192 -43.90679584 0.0
239 1 -47.03512528 49.4764408 0.0
240 1 7.45747424 1.57583672 0.0
241 1 36.80088224 -15.80015296 0.0
242 1 51.48414152 -49.262037832 0.0
243 1 -47.142904528 10.62934024 0.0
244 1 29.36605168 38.63700456 0.0
245 1 43.09909344 -10.63015728 0.0
246 1 -54.643821952 26.2304856 0.0
247 1 21.84624896 -19.38742544 0.0
248 1 38.27867416 -7.58469904 0.0
249 1 -52.84457148 42.01663216 0.0
250 1 -48.25053064 -30.33891288 0.0
251 1 -33.94205928 24.406152 0.0
252 1 45.98032664 -31.74713968 0.0
253 1 -48.001870352 -41.09396056 0.0
254 1 21.10250912 -25.87589024 0.0
255 1 56.07182112 -15.76968904 0.0
256 1 25.74423008 37.67511504 0.0
257 1 3.38009448 -6.2842048 0.0
258 1 58.19215664 -54.178365936 0.0
259 1 -49.696913208 24.93711128 0.0
260 1 22.00837304 -41.14601768 0.0
261 1 39.46851784 -33.12070064 0.0
262 1 -58.1732223216 -47.180651776 0.0
263 1 25.37037592 -48.812397376 0.0
264 1 50.034946 -36.33155112 0.0
265 1 52.71507064 56.32416976 0.0
266 1 -57.4403211008 31.85242112 0.0
267 1 6.09266728 -27.18770632 0.0
268 1 -40.71812216 -38.5257704 0.0
269 1 32.85632984 -26.91598216 0.0
270 1 34.07675416 58.1516548 0.0
271 1 28.701448 -16.02063704 0.0
272 1 26.5170332 -54.067808752 0.0
273 1 -7.96952488 48.42059168 0.0
274 1 -49.421629088 -39.65888816 0.0
275 1 39.17870208 44.7142648 0.0
276 1 -54.949931824 -33.7869384 0.0
277 1 -44.22707552 -1.50417064 0.0
278 1 46.1878548 -55.147795568 0.0
279 1 18.5392212 -24.29561816 0.0
280 1 -53.621844976 28.58134312 0.0
281 1 22.96711112 26.91143008 0.0
282 1 -30.37474592 -11.53672152 0.0
283 1 39.61220016 -40.2205448 0.0
284 1 37.98033784 45.74758696 0.0
285 1 -49.8330204 54.34039664 0.0
286 1 55.87608168 -17.9445328 0.0
287 1 23.14289144 28.21951112 0.0
288 1 53.71489416 55.37068408 0.0
289 1 26.68195856 -12.7055556 0.0
290 1 -36.61658136 -54.986465184 0.0
291 1 50.48011608 -34.7393736 0.0
292 1 16.89311904 -22.7382232 0.0
293 1 5.23010648 -19.19028536 0.0
294 1 8.63891408 -9.1520152 0.0
295 1 47.37571424 2.5141488 0.0
296 1 27.68551712 35.29250968 0.0
297 1 48.21621496 9.71425544 0.0
298 1 40.74508448 -27.02581568 0.0
299 1 -34.35139632 -4.57670792 0.0
300 1 40.61715936 -8.25723968 0.0
301 1 52.95633088 10.82951504 0.0
302 1 40.42550512 18.84607808 0.0
303 1 -18.59186192 -12.65023032 0.0
304 1 46.37647432 -4.7831856 0.0
305 1 -50.02321564 -25.38029712 0.0
306 1 -48.194785168 27.82814896 0.0
307 1 53.21813384 26.99465144 0.0
308 1 -57.6019958088 3.55225648 0.0
309 1 13.19531272 20.51143904 0.0
310 1 22.6372604 18.00954584 0.0
311 1 45.0317432 -43.21359576 0.0
312 1 35.55536312 25.38181448 0.0
313 1 34.65813648 -18.57797224 0.0
314 1 -57.8310086192 -9.217962 0.0
315 1 58.31307856 -14.9209012 0.0
316 1 -44.88187472 -49.418652728 0.0
317 1 -51.501801256 -10.89627888 0.0
318 1 -31.8155376 -20.59034176 0.0
319 1 -35.81751624 -9.71145416 0.0
320 1 -35.2237616 -11.7064324 0.0
321 1 -28.4785128 -49.221535992 0.0
322 1 5.2226364 35.8312892 0.0
323 1 44.06039936 -4.62841488 0.0
324 1 51.8067556 0.88625496 0.0
325 1 -55.17144304 -48.770950104 0.0
326 1 57.22618192 0.26833928 0.0
327 1 48.14338168 18.95521128 0.0
328 1 -38.78278784 -24.54586584 0.0
329 1 50.11921784 -2.21546232 0.0
330 1 42.77893048 -8.56689784 0.0
331 1 38.09787488 -1.3516176 0.0
332 1 29.95712176 -1.19567968 0.0
333 1 -43.02345888 0.42929616 0.0
334 1 53.91145064 2.4522872 0.0
335 1 4.23098328 19.8692456 0.0
336 1 14.95930208 0.08777344 0.0
337 1 26.72035944 -8.4872948 0.0
338 1 48.81603904 -23.89130008 0.0
339 1 -35.74013088 11.48898304 0.0
340 1 -57.463053488 -5.66628912 0.0
341 1 52.24538936 -25.70898064 0.0
342 1 -45.5692388 -57.4526514016 0.0
343 1 -55.418796064 16.59910136 0.0
344 1 48.19030312 -2.89243832 0.0
345 1 -35.75728872 -28.1767916 0.0
346 1 53.59443912 35.91275976 0.0
347 1 10.89592872 13.52014448 0.0
348 1 51.65642024 45.52593568 0.0
349 1 19.45208832 -46.33924064 0.0
350 1 -36.45188944 -22.13606472 0.0
351 1 45.71665616 5.41102248 0.0
352 1 -28.8753608 -24.198974 0.0
353 1 18.97493696 -29.95233624 0.0
354 1 -37.312466 37.00864384 0.0
355 1 -22.9973416 -33.84856656 0.0
356 1 -39.17776832 -42.90113632 0.0
357 1 56.63627904 -14.10631232 0.0
358 1 24.2625864 19.76524808 0.0
359 1 -41.92243912 37.05579872 0.0
360 1 10.96012472 -47.256356368 0.0
361 1 -23.33197784 -25.05908368 0.0
362 1 -27.21315128 3.37227424 0.0
363 1 -56.073852048 21.73711576 0.0
364 1 47.63611656 -28.77766616 0.0
365 1 45.42473944 14.52253584 0.0
366 1 -30.72140432 -21.16938968 0.0
367 1 -55.015528464 -27.51183776 0.0
368 1 -46.775353248 -12.10923312 0.0
369 1 53.10141384 43.6200148 0.0
370 1 -17.66813984 -40.26816656 0.0
371 1 -38.5491144 29.79172952 0.0
372 1 56.99752744 -0.82777824 0.0
373 1 45.99561696 -58.0422659832 0.0
374 1 58.2164344 15.96636224 0.0
375 1 -50.98376288 26.27180448 0.0
376 1 29.67395904 -40.59731696 0.0
377 1 48.32593176 0.61488096 0.0
378 1 20.96956504 30.28487152 0.0
379 1 -44.65567136 45.44983424 0.0
380 1 37.83782272 19.28984752 0.0
381 1 -53.01288172 14.1709752 0.0
382 1 -33.4116836 -18.91004064 0.0
383 1 52.8513996 20.96326216 0.0
384 1 -57.833896272 -51.803744224 0.0
385 1 -52.172486048 50.92306848 0.0
386 1 51.83511856 8.71478208 0.0
387 1 39.4752876 1.92833112 0.0
388 1 35.58419296 -3.1088372 0.0
389 1 55.687112 -10.4837904 0.0
390 1 40.215876 -25.98794144 0.0
391 1 -27.8704016 14.06802816 0.0
392 1 3.22590736 20.5403856 0.0
393 1 -0.38494256 -12.06149464 0.0
394 1 56.97546736 26.38467272 0.0
395 1 31.09164016 -2.2170964 0.0
396 1 -17.99694008 -25.46468568 0.0
397 1 -50.183799016 0.20636096 0.0
398 1 17.91745376 -33.66333192 0.0
399 1 -26.02926032 -16.35270544 0.0
400 1 40.00542984 -17.42909728 0.0
401 1 22.86988336 -51.122006048 0.0
402 1 42.29559296 -3.06261608 0.0
403 1 -55.660511512 2.50679544 0.0
404 1 -56.95661708 -7.7507916 0.0
405 1 10.48238976 -19.4613092 0.0
406 1 51.67334464 39.054512 0.0
407 1 15.67864744 -3.7070272 0.0
408 1 -41.75401216 -10.6232708 0.0
409 1 43.92570448 21.42734088 0.0
410 1 37.69740856 -40.91374488 0.0
411 1 -56.544852264 -20.2433332 0.0
412 1 -46.06063 27.17906904 0.0
413 1 -48.136483528 -7.09412488 0.0
414 1 27.61630216 7.55808688 0.0
415 1 55.75796104 -28.58717912 0.0
416 1 -53.318267928 18.33110944 0.0
417 1 42.27750136 -4.4301076 0.0
418 1 51.2844336 -26.53757592 0.0
419 1 -43.64756072 7.53229176 0.0
420 1 -37.19387848 55.62361632 0.0
421 1 -57.2074798744 33.0364288 0.0
422 1 -51.474231992 34.81921008 0.0
423 1 -45.23985496 -2.36673144 0.0
424 1 -36.19767328 -10.95627296 0.0
425 1 -6.88799736 -36.39061144 0.0
426 1 35.88392992 -42.64516936 0.0
427 1 -17.7916296 -3.1578596 0.0
428 1 -23.11592912 16.40627992 0.0
429 1 41.01517456 -29.5237404 0.0
430 1 -53.808456912 6.99724728 0.0
431 1 -39.0609316 -19.53064088 0.0
432 1 13.98060488 26.3664644 0.0
433 1 1.38943488 -28.50886 0.0
434 1 47.36310848 -15.95527384 0.0
435 1 51.2056476 41.15990736 0.0
436 1 -49.75931172 1.41849816 0.0
437 1 -47.1116936 -7.73608488 0.0
438 1 35.868056 -27.25493704 0.0
439 1 -56.762138216 23.86480464 0.0
440 1 -34.98180104 23.54265744 0.0
441 1 29.86316216 -47.198731704 0.0
442 1 -57.2404287632 39.17169888 0.0
443 1 21.25389496 36.07745168 0.0
444 1 -17.67514304 -6.84924632 0.0
445 1 48.34787512 46.33270432 0.0
446 1 19.17055968 -1.28730488 0.0
447 1 51.39099896 -24.61239624 0.0
448 1 -55.622460792 23.936354 0.0
449 1 -57.9033586784 -6.68957336 0.0
450 1 47.8476132 -57.143684224 0.0
451 1 47.11951384 -32.18542328 0.0
452 1 -44.98412144 35.06315488 0.0
453 1 42.6500716 52.69172664 0.0
454 1 49.05414784 -28.46952536 0.0
455 1 -6.93118376 52.43144104 0.0
456 1 1.82573424 21.56717144 0.0
457 1 -51.128484008 -13.04030856 0.0
458 1 -44.97711824 -3.5150228 0.0
459 1 -38.01908888 -8.70404384 0.0
460 1 -8.61125144 -9.3282624 0.0
461 1 -48.685090872 -16.40312848 0.0
462 1 -28.22733136 -5.2646556 0.0
463 1 -14.9915168 -41.45345816 0.0
464 1 -40.51946472 38.68812792 0.0
465 1 -36.42212584 16.3478032 0.0
466 1 37.83817288 -35.59691544 0.0
467 1 -33.7099032 17.46166216 0.0
468 1 16.65571056 15.83411848 0.0
469 1 33.56306944 -49.083724688 0.0
470 1 -34.20024392 -50.286045736 0.0
471 1 31.76966664 38.72816288 0.0
472 1 -16.07502856 4.13527288 0.0
473 1 -55.544573536 -5.68578136 0.0
474 1 7.4409 -9.79771024 0.0
475 1 -52.225115096 16.7067172 0.0
476 1 -14.4960404 -35.61524048 0.0
477 1 -42.31251736 5.67399264 0.0
478 1 -33.02604072 16.54284232 0.0
479 1 -39.22118816 4.86990856 0.0
480 1 -25.61256992 -24.53781216 0.0
481 1 -53.384016304 4.14974616 0.0
482 1 39.7005572 35.13412064 0.0
483 1 14.19478608 4.40221152 0.0
484 1 -51.592212568 -9.5482796 0.0
485 1 35.23823488 3.43705384 0.0
486 1 38.98494688 -28.38151848 0.0
487 1 51.1881396 -31.55735296 0.0
488 1 48.31951216 -48.751714648 0.0
489 1 -40.98482736 -5.11607104 0.0
490 1 -54.537023152 48.77705456 0.0
491 1 -42.10008696 -9.486418 0.0
492 1 39.84225528 -3.01067568 0.0
493 1 30.76237304 55.79379408 0.0
494 1 -54.90864796 47.58977872 0.0
495 1 20.28220096 35.48136264 0.0
496 1 50.60057112 8.42753416 0.0
497 1 -51.711360344 -32.75326608 0.0
498 1 0.42030872 22.66912496 0.0
499 1 51.89336184 3.6457492 0.0
500 1 -30.700278 -17.42769664 0.0
501 1 -5.2413116 -27.62400568 0.0
502 1 -35.42533704 33.18909856 0.0
503 1 15.21176744 -21.65412784 0.0
504 1 26.57200832 -18.4510976 0.0
505 1 -24.45155608 -17.87426736 0.0
506 1 -42.0939008 -5.17174648 0.0
507 1 -50.358330432 50.45525472 0.0
508 1 19.73723528 -28.84874864 0.0
509 1 -40.14385976 -1.98470688 0.0
510 1 56.4609656 -36.06846424 0.0
511 1 42.57140232 2.28082552 0.0
512 1 -25.2803848 44.97711824 0.0
513 1 28.26748304 2.6746388 0.0
514 1 43.25456448 3.15097312 0.0
515 1 -48.971708504 -6.03920952 0.0
516 1 40.30446648 -20.98042 0.0
517 1 -42.24878824 31.84681856 0.0
518 1 45.47924768 29.50821664 0.0
519 1 39.54672024 4.54496008 0.0
520 1 -34.81092296 52.88559856 0.0
521 1 54.66044288 18.26971472 0.0
522 1 55.6305028 -56.677096024 0.0
523 1 55.7256296 -22.79004688 0.0
524 1 -53.222650904 37.53213304 0.0
525 1 -54.924428504 40.56755336 0.0
526 1 -25.22459264 29.25668504 0.0
527 1 -55.230258248 -11.32452456 0.0
528 1 58.07041768 -22.80171888 0.0
529 1 -41.86944824 35.79942464 0.0
530 1 22.71756376 -9.55283168 0.0
531 1 49.603082 12.69715176 0.0
532 1 7.66990464 -3.99730984 0.0
533 1 46.94875248 -41.83898432 0.0
534 1 -36.1902032 -2.43046056 0.0
535 1 18.26189448 -10.39414944 0.0
536 1 -44.49786592 -4.71572144 0.0
537 1 -47.6926674 -2.46314216 0.0
538 1 22.27216024 -43.2955332 0.0
539 1 -18.13466968 -20.92416096 0.0
540 1 -30.80077392 32.97153248 0.0
541 1 -38.84103112 -18.08214568 0.0
542 1 -45.72774456 28.29304472 0.0
543 1 -37.53528448 -50.032401504 0.0
544 1 -50.56853148 18.31675288 0.0
545 1 56.20079672 53.57016136 0.0
546 1 -39.57776776 1.73749392 0.0
547 1 58.12924456 -10.4942952 0.0
548 1 -37.51450832 16.30788496 0.0
549 1 -43.90154344 34.92180696 0.0
550 1 12.20097504 46.03425128 0.0
551 1 50.60243864 18.32714096 0.0
552 1 45.49208688 -40.01196616 0.0
553 1 57.2091408 44.70224264 0.0
554 1 -46.67200936 53.45904392 0.0
555 1 -38.07896624 32.86356648 0.0
556 1 -57.775635484 -13.13053312 0.0
557 1 -57.2882466128 15.7321052 0.0
558 1 -33.76102656 -45.84679896 0.0
559 1 57.72772776 -26.88680216 0.0
560 1 57.2675008 38.55821856 0.0
561 1 12.115536 5.84206944 0.0
562 1 20.94376992 -12.2246692 0.0
563 1 45.02368952 -26.85937296 0.0
564 1 -41.0632632 3.42783296 0.0
565 1 35.19936712 -13.005526 0.0
566 1 43.3894928 15.36817224 0.0
567 1 15.19274208 25.71855168 0.0
568 1 47.83173928 -43.50049352 0.0
569 1 40.85351736 19.86831184 0.0
570 1 30.0040432 11.72709184 0.0
571 1 21.50706064 13.8861784 0.0
572 1 -21.76664592 33.56855528 0.0
573 1 -33.94812872 50.10392752 0.0
574 1 -37.2616928 -6.56596688 0.0
575 1 39.45206032 -7.11338368 0.0
576 1 53.13759704 -7.09179048 0.0
577 1 -31.50587944 52.00156128 0.0
578 1 -1.50277 -12.46534584 0.0
579 1 47.48659824 -5.1788664 0.0
580 1 -6.0087456 -45.39812728 0.0
581 1 31.85312144 17.38742824 0.0
582 1 43.9906008 34.00602184 0.0
583 1 56.32043472 -34.79691656 0.0
584 1 -6.96328176 -7.65169632 0.0
585 1 57.99023104 26.93010528 0.0
586 1 -12.21136312 29.01297368 0.0
587 1 -56.038217432 -16.6681996 0.0
588 1 54.08232872 14.19361888 0.0
589 1 18.80195792 29.35811472 0.0
590 1 22.58088464 -27.5074024 0.0
591 1 -53.030296344 5.18610304 0.0
592 1 55.46277616 -7.0574748 0.0
593 1 -49.602241616 -37.59831328 0.0
594 1 19.41508808 23.12421624 0.0
595 1 56.00540744 -4.7230748 0.0
596 1 -43.13784448 -17.8441536 0.0
597 1 52.68880864 -5.97186208 0.0
598 1 42.51129152 13.21352104 0.0
599 1 -44.06927008 28.42505504 0.0
600 1 -52.56059172 48.18294976 0.0
601 1 -44.26162464 46.74157448 0.0
602 1 -55.86429296 36.12110496 0.0
603 1 51.82414688 -23.16004928 0.0
604 1 -37.37794592 17.4403024 0.0
605 1 -12.41515624 37.1712348 0.0
606 1 -38.99335072 35.27255056 0.0
607 1 -49.186706744 -49.726093208 0.0
608 1 -56.588937408 -21.59156592 0.0
609 1 48.22158408 -13.39198592 0.0
610 1 34.74801088 17.46294608 0.0
611 1 -28.07909696 2.25771496 0.0
612 1 -28.60538744 9.18037816 0.0
613 1 -35.49466872 6.24346952 0.0
614 1 -17.48337208 2.357744 0.0
615 1 -34.47313528 20.73098936 0.0
616 1 -56.875298256 7.68787952 0.0
617 1 -30.62487688 11.08326432 0.0
618 1 -5.99777392 -4.08730096 0.0
619 1 -9.11396448 6.72377232 0.0
620 1 50.61656176 23.87951136 0.0
621 1 -50.679555544 -4.44749888 0.0
622 1 -54.41900756 7.92108608 0.0
623 1 45.48660104 18.488448 0.0
624 1 -48.838589344 53.78329208 0.0
625 1 51.40197064 4.63600168 0.0
626 1 -32.690354 2.9156656 0.0
627 1 -41.97087792 49.32505496 0.0
628 1 56.88034056 22.57329784 0.0
629 1 -19.73770216 -4.05578656 0.0
630 1 -29.21746712 35.85510008 0.0
631 1 17.72358184 2.15733576 0.0
632 1 39.66484088 6.82613576 0.0
633 1 -48.775268744 10.7913476 0.0
634 1 -11.0528004 -11.6714164 0.0
635 1 41.9684268 17.67502632 0.0
636 1 -36.94409768 33.59014848 0.0
637 1 -55.197775072 41.88648936 0.0
638 1 -33.28002344 20.49813296 0.0
639 1 -49.93993592 -45.36766336 0.0
640 1 3.82456424 -56.529573616 0.0
641 1 -27.52362648 30.93862024 0.0
642 1 -49.800700632 17.19250584 0.0
643 1 -35.15933216 8.47118744 0.0
644 1 -18.72118768 -31.71994392 0.0
645 1 27.6661416 57.51774848 0.0
646 1 -34.14725304 42.24166832 0.0
647 1 -42.62824496 1.72850648 0.0
648 1 -41.37864064 6.27043184 0.0
649 1 -41.14018168 28.83357504 0.0
650 1 -45.3124548 0.9623564 0.0
651 1 -7.75440992 28.225814 0.0
652 1 -47.246003304 -0.25363256 0.0
653 1 -9.42665736 -58.1238450928 0.0
654 1 -19.8610752 14.01702152 0.0
655 1 46.32068216 13.8418248 0.0
656 1 35.16866976 55.0959252 0.0
657 1 56.474972 7.59473696 0.0
658 1 -23.25202464 6.005244 0.0
659 1 -37.53505104 39.46034744 0.0
660 1 -29.422194 49.06932144 0.0
661 1 57.2009704 9.58084448 0.0
662 1 55.79951336 -2.66728544 0.0
663 1 57.18603024 27.67851392 0.0
664 1 -37.47015472 23.87729368 0.0
665 1 -48.688008872 1.71730136 0.0
666 1 -44.68963688 25.24805336 0.0
667 1 -49.810178296 4.93889008 0.0
668 1 -43.28187696 53.54366592 0.0
669 1 -8.08624488 13.76782432 0.0
670 1 -50.40985064 -9.73608208 0.0
671 1 58.2759616 2.7003172 0.0
672 1 -57.2627841448 12.87503304 0.0
673 1 -3.16603 4.9261676 0.0
674 1 32.96394568 8.87970744 0.0
675 1 53.94996824 44.52132664 0.0
676 1 57.61614344 -49.844202176 0.0
677 1 -32.99814464 27.94230112 0.0
678 1 -44.90206728 48.87918456 0.0
679 1 -15.80995744 -10.0764376 0.0
680 1 -56.709450808 -25.75706928 0.0
681 1 50.24749312 7.28542896 0.0
682 1 -40.57035464 41.75973144 0.0
683 1 36.98249856 14.66971976 0.0
684 1 -52.37086336 47.03454168 0.0
685 1 51.68279896 20.34616352 0.0
686 1 -53.935156472 -38.87394616 0.0
687 1 -26.33168184 14.49685744 0.0
688 1 45.58102752 4.07574568 0.0
689 1 22.71616312 -10.7289024 0.0
690 1 -56.525079896 33.91719792 0.0
691 1 2.34151992 10.79216464 0.0
692 1 -13.22460944 14.76718096 0.0
693 1 27.50763584 14.68197536 0.0
694 1 44.50988808 -14.90969608 0.0
695 1 -56.798916688 -52.433810456 0.0
696 1 -28.30296592 -1.20840216 0.0
697 1 -44.91082128 27.5214088 0.0
698 1 -26.29188032 -21.56086856 0.0
699 1 56.82653264 29.04320416 0.0
700 1 -17.70595712 39.75704968 0.0
701 1 32.54375368 -30.97258576 0.0
702 1 -38.55004816 54.00611056 0.0
703 1 -57.157387152 48.82210848 0.0
704 1 18.62010816 47.9479924 0.0
705 1 -44.91047112 21.2033552 0.0
706 1 -54.17990664 -26.56232056 0.0
707 1 -39.94030008 27.07740592 0.0
708 1 51.00127088 46.50194832 0.0
709 1 40.35372232 15.48664304 0.0
710 1 -31.39522888 18.666446 0.0
711 1 -36.40928664 51.28011496 0.0
712 1 -33.22796632 54.83528944 0.0
713 1 28.82855608 20.74674656 0.0
714 1 55.15510224 0.60437616 0.0
715 1 -33.78612136 21.58362896 0.0
716 1 -33.59540088 47.7163032 0.0
717 1 -39.77023904 46.9027648 0.0
718 1 -3.53649928 54.26989776 0.0
719 1 33.11031256 44.35640128 0.0
720 1 -32.12811376 49.31046496 0.0
721 1 -14.2275844 12.14623336 0.0
722 1 -47.57950736 -1.3358604 0.0
723 1 42.2362992 57.60972384 0.0
724 1 -47.268763704 51.46499944 0.0
725 1 -34.52729336 7.39911424 0.0
726 1 35.4904668 -4.44609824 0.0
727 1 -39.78156088 14.0746812 0.0
728 1 -45.94029168 21.64654104 0.0
729 1 -26.04700176 22.59477432 0.0
730 1 -35.04237872 37.63064472 0.0
731 1 -16.64999128 -56.605243192 0.0
732 1 13.67118016 36.83613168 0.0
733 1 -37.13026608 -38.51678296 0.0
734 1 -34.38431136 6.23448208 0.0
735 1 2.55570112 11.8838468 0.0
736 1 52.8105476 18.67414952 0.0
737 1 28.89496976 -1.48631248 0.0
738 1 -44.86810176 10.77290584 0.0
739 1 -32.92927984 29.11078504 0.0
740 1 -4.50620904 13.1123248 0.0
741 1 -55.718089488 10.2281736 0.0
742 1 -21.62541472 -6.73462728 0.0
743 1 -32.9226268 40.46530664 0.0
744 1 -43.0107364 27.82277984 0.0
745 1 -15.56671296 10.02589784 0.0
746 1 47.73567872 3.65321928 0.0
747 1 -24.55170184 37.16061328 0.0
748 1 9.5336896 -24.3909784 0.0
749 1 53.32341528 -56.83318568 0.0
750 1 28.80147704 10.19887688 0.0
751 1 -47.308378472 -33.73884976 0.0
752 1 2.95570056 37.400006 0.0
753 1 -18.51774472 7.08408696 0.0
754 1 30.20806976 6.5999324 0.0
755 1 -45.69377904 22.89392768 0.0
756 1 54.66219368 12.28174528 0.0
757 1 -14.91704944 -58.1794481664 0.0
758 1 -44.72722072 3.19906176 0.0
759 1 -28.5024404 7.04708672 0.0
760 1 4.1021244 28.39844288 0.0
761 1 -40.28380704 -39.92255864 0.0
762 1 -19.88873784 55.28898008 0.0
763 1 -46.871740624 -41.36755224 0.0
764 1 -58.0589172584 -24.0554084 0.0
765 1 3.37577584 40.66501456 0.0
766 1 -37.29309048 -10.2124164 0.0
767 1 52.90719176 39.35366536 0.0
768 1 -43.71759272 13.03423912 0.0
769 1 23.68330504 -10.21778552 0.0
770 1 -47.0472058 43.65981632 0.0
771 1 33.84891672 20.70624472 0.0
772 1 -37.80934304 19.67187208 0.0
773 1 45.77676696 -12.85355656 0.0
774 1 -34.97596504 45.34408592 0.0
775 1 -15.00423928 4.47119304 0.0
776 1 55.81923904 -39.07482128 0.0
777 1 -48.044543184 18.03137248 0.0
778 1 -24.48003576 -39.90505064 0.0
779 1 -57.707967064 17.14686832 0.0
780 1 46.53346272 -9.75825888 0.0
781 1 -51.687152616 -30.36855976 0.0
782 1 40.53778976 14.24579272 0.0
783 1 57.75527368 34.14947072 0.0
784 1 -25.2091856 -19.77376864 0.0
785 1 -54.84275952 -47.494465168 0.0
786 1 50.11419888 -46.57606552 0.0
787 1 41.93247704 7.26733736 0.0
788 1 -27.7221672 45.24627456 0.0
789 1 -27.20871592 44.08175912 0.0
790 1 43.30148592 39.61056608 0.0
791 1 -56.78392984 30.83380568 0.0
792 1 51.87772136 9.86365704 0.0
793 1 56.2421156 2.44913576 0.0
794 1 -39.54193472 41.2494316 0.0
795 1 55.0912564 21.70840264 0.0
796 1 -17.39734944 22.0326508 0.0
797 1 -41.35307896 -18.32235544 0.0
798 1 -2.4943064 16.33869904 0.0
799 1 -52.141788688 37.04424344 0.0
800 1 52.55983304 25.87250536 0.0
801 1 -19.83819808 -21.07589696 0.0
802 1 -25.67804984 -1.41593032 0.0
803 1 -18.13723752 -32.6722624 0.0
804 1 -57.8575332392 35.02136912 0.0
805 1 -51.32038336 23.5768564 0.0
806 1 13.32907384 -43.85602264 0.0
807 1 -30.29922808 7.94793168 0.0
808 1 -52.821262496 55.5569692 0.0
809 1 -18.1482092 11.78393448 0.0
810 1 -53.834870648 0.25958528 0.0
811 1 -46.31472944 7.13836176 0.0
812 1 -40.8222364 47.4128312 0.0
813 1 48.35686256 -0.79848152 0.0
814 1 -46.01359184 -16.47024248 0.0
815 1 -56.774557224 0.89839384 0.0
816 1 44.00157248 -22.30939392 0.0
817 1 26.95368272 3.17851904 0.0
818 1 -27.29894048 -47.50165512 0.0
819 1 49.60214824 47.7875024 0.0
820 1 -18.4382584 4.67568648 0.0
821 1 19.20242424 39.8873092 0.0
822 1 -36.2567336 37.64009904 0.0
823 1 32.59569408 -40.86448904 0.0
824 1 -47.909206344 28.98005864 0.0
825 1 48.1610064 42.37472912 0.0
826 1 -22.4067384 -4.54764464 0.0
827 1 24.73005 9.6743372 0.0
828 1 35.50995904 56.16601416 0.0
829 1 57.78036848 11.13707224 0.0
830 1 -32.0063748 5.92377344 0.0
831 1 -32.10418616 4.39415784 0.0
832 1 45.06489168 -15.97920144 0.0
833 1 -15.24456576 42.3611896 0.0
834 1 53.20050912 40.54922832 0.0
835 1 -49.351071848 9.76584568 0.0
836 1 25.38298168 35.64733848 0.0
837 1 40.98517752 16.42507184 0.0
838 1 0.11100072 44.60536504 0.0
839 1 -51.860411784 44.9657964 0.0
840 1 -54.690579984 18.57178608 0.0
841 1 -53.333359824 -6.17238704 0.0
842 1 -12.14086424 10.87328504 0.0
843 1 -24.37393728 -21.58234504 0.0
844 1 -48.738700368 25.84846104 0.0
845 1 -31.86841176 30.99709696 0.0
846 1 -44.4125436 44.10043432 0.0
847 1 -35.37584776 -6.7586716 0.0
848 1 48.3349192 -20.49918344 0.0
849 1 -19.42349192 -34.90593304 0.0
850 1 -43.53352528 44.88047408 0.0
851 1 -8.84165672 -25.04192584 0.0
852 1 -0.86302768 -16.06732504 0.0
853 1 -25.03784064 22.06276456 0.0
854 1 -48.134487616 49.25724064 0.0
855 1 54.9237632 4.21079072 0.0
856 1 11.7210224 -40.64738984 0.0
857 1 40.45059992 52.6792376 0.0
858 1 33.0562712 4.19304928 0.0
859 1 -38.79119168 -15.50053272 0.0
860 1 55.87538136 -52.990903344 0.0
861 1 34.11678912 9.81253368 0.0
862 1 -14.67917408 -10.73193712 0.0
863 1 -33.5038924 -49.270943568 0.0
864 1 47.15091152 -40.71578776 0.0
865 1 57.28162392 -8.1861572 0.0
866 1 -7.57652864 33.65959688 0.0
867 1 5.75768088 53.2179004 0.0
868 1 -26.14026104 11.15282944 0.0