ITEM: TIMESTEP
0
ITEM: NUMBER OF ATOMS
9963
ITEM: BOX BOUNDS pp pp pp
-5.8359999999999999e+01 5.8359999999999999e+01
-5.8359999999999999e+01 5.8359999999999999e+01
-5.0000000000000000e-01 5.0000000000000000e-01
ITEM: ATOMS id type xs ys zs c_002[1] c_002[2]
1 1 0.187321 0.183754 0.5 0.379382 0.113449
2 1 0.847605 0.164685 0.5 -0.303768 0.710172
3 1 0.717328 0.209735 0.5 -0.234937 0.280605
4 1 0.871175 0.0814526 0.5 -0.521285 0.38358
5 1 0.0166829 0.0547776 0.5 -0.438006 0.408224
6 1 0.779337 0.0341709 0.5 0.937108 0.0455325
7 1 0.260413 0.119248 0.5 -0.452417 -0.524161
8 1 0.910883 0.0818984 0.5 -0.209258 0.365492
9 1 0.820733 0.992439 0.5 0.121623 -0.688111
10 1 0.082214 0.872213 0.5 0.157725 0.640748
11 1 0.0649818 0.058435 0.5 -0.0625896 -0.040115
12 1 0.961104 0.123683 0.5 -0.25609 0.84155
13 1 0.134245 0.862317 0.5 0.518503 -0.690801
14 1 0.250492 0.801178 0.5 -0.240105 -0.0206642
15 1 0.283998 0.744283 0.5 0.0918739 0.394764
16 1 0.683599 0.27179 0.5 0.101572 0.718984
17 1 0.1058 0.958167 0.5 0.322314 0.892038
18 1 0.632458 0.779585 0.5 0.76335 -0.310234
19 1 0.0710239 0.329893 0.5 -0.227798 0.248377
20 1 0.0968202 0.0396453 0.5 0.640964 0.61846
21 1 0.930107 0.185499 0.5 0.670287 0.384667
22 1 0.212694 0.150975 0.5 -0.396836 -0.0377485
23 1 0.0742977 0.896752 0.5 0.277872 0.852028
24 1 0.974137 0.101555 0.5 -0.016923 0.91008
25 1 0.329376 0.145232 0.5 0.590136 -0.757469
26 1 0.885636 0.127097 0.5 0.506755 -0.225864
27 1 0.848165 0.246446 0.5 -0.296268 0.388241
28 1 0.964042 0.272176 0.5 0.228394 0.828333
29 1 0.334918 0.801444 0.5 0.375429 -0.373595
30 1 0.0965764 0.121193 0.5 0.189198 0.811392
31 1 0.115295 0.0879521 0.5 0.658696 0.614731
32 1 0.0869222 0.29051 0.5 -0.313507 0.667574
33 1 0.0496176 0.232007 0.5 0.554162 0.49174
34 1 0.9501 0.110999 0.5 -0.56582 0.716069
35 1 0.92644 0.150953 0.5 0.201522 -0.24411
36 1 0.0799418 0.249928 0.5 -0.332356 0.336984
37 1 0.0340898 0.193952 0.5 0.540703 0.593587
38 1 0.936078 0.231899 0.5 0.0493168 -0.022954
39 1 0.836728 0.230102 0.5 -0.941762 0.154982
40 1 0.193494 0.0253028 0.5 0.722623 -0.456589
41 1 0.185882 0.24233 0.5 -0.519046 0.695364
42 1 0.979745 0.211946 0.5 -0.175732 0.816211
43 1 0.946926 0.280533 0.5 0.582187 0.071391
44 1 0.0629692 0.920345 0.5 0.207233 0.568568
45 1 0.150465 0.849218 0.5 -0.441742 -0.0912091
46 1 0.766328 0.212666 0.5 -0.325247 0.157929
47 1 0.821828 0.101558 0.5 -0.732838 -0.307649
48 1 0.0718667 0.831546 0.5 -0.140902 -0.574082
49 1 0.897043 0.0727783 0.5 0.68038 0.529658
50 1 0.107571 0.0421346 0.5 0.736866 0.393519
51 1 0.116267 0.765352 0.5 -0.21634 -0.170202
52 1 0.954463 0.0440386 0.5 0.10647 0.986313
53 1 0.126424 0.917719 0.5 0.416143 0.528437
54 1 0.229382 0.862741 0.5 -0.583986 0.185528
55 1 0.795173 0.175418 0.5 -0.223628 0.179328
56 1 0.18534 0.35558 0.5 0.128392 0.887258
57 1 0.066922 0.959691 0.5 0.649718 0.696927
58 1 0.81594 0.00254901 0.5 0.434707 -0.592682
59 1 0.101498 0.0778533 0.5 0.232047 0.819673
60 1 0.744431 0.105335 0.5 -0.35541 0.358636
61 1 0.855047 0.0569188 0.5 -0.0454867 0.20076
62 1 0.970815 0.0671621 0.5 0.493151 0.529571
63 1 0.182124 0.317569 0.5 0.558832 0.767336
64 1 0.804641 0.983491 0.5 0.558453 -0.416694
65 1 0.9157 0.248472 0.5 -0.362572 0.217598
66 1 0.177331 0.829429 0.5 -0.627144 0.231772
67 1 0.964195 0.898577 0.5 0.138332 0.286081
68 1 0.878862 0.119894 0.5 0.547959 -0.764841
69 1 0.149216 0.805025 0.5 -0.385759 0.412562
70 1 0.673987 0.0836507 0.5 -0.805063 0.492491
71 1 0.775696 0.197196 0.5 0.0959089 -0.613212
72 1 0.861222 0.151218 0.5 -0.212524 -0.196847
73 1 0.982278 0.0673175 0.5 0.860584 0.412484
74 1 0.00644273 0.198688 0.5 0.196602 0.905179
75 1 0.881308 0.0639294 0.5 0.316353 -0.197761
76 1 0.827958 0.12954 0.5 0.015611 -0.137211
77 1 0.831365 0.837624 0.5 0.863751 0.44259
78 1 0.752396 0.395387 0.5 -0.102379 0.0553402
79 1 0.194766 0.794872 0.5 -0.479309 0.528626
80 1 0.303019 0.880726 0.5 0.382441 0.763708
81 1 0.826773 0.215174 0.5 -0.812971 0.246535
82 1 0.80412 0.178928 0.5 -0.243703 0.453605
83 1 0.263044 0.366387 0.5 0.658579 0.285079
84 1 0.0595741 0.0363378 0.5 0.57984 0.0934964
85 1 0.092603 0.946624 0.5 0.631546 0.735
86 1 0.888508 0.150257 0.5 -0.539256 -0.611513
87 1 0.130775 0.871777 0.5 0.520414 -0.728894
88 1 0.186638 0.813068 0.5 -0.681517 -0.631748
89 1 0.0482324 0.0094645 0.5 -0.376276 -0.333297
90 1 0.248275 0.894949 0.5 0.232875 -0.101055
91 1 0.787024 0.0972819 0.5 -0.043218 -0.940696
92 1 0.323167 0.31414 0.5 0.338919 0.186046
93 1 0.313766 0.840984 0.5 -0.649966 0.195821
94 1 0.885677 0.973338 0.5 -0.306872 0.315769
95 1 0.179077 0.362843 0.5 0.0300738 0.952954
96 1 0.917655 0.0655954 0.5 -0.396287 -0.238988
97 1 0.718225 0.13454 0.5 -0.279101 0.29689
98 1 0.864279 0.0415857 0.5 -0.602739 -0.199535
99 1 0.0904762 0.16379 0.5 0.011307 0.294214
100 1 0.824943 0.313357 0.5 0.732889 0.0844059
101 1 0.637525 0.956494 0.5 -0.374855 0.786031
102 1 0.903495 0.0315856 0.5 -0.252896 0.465361
103 1 0.65937 0.178135 0.5 -0.544067 0.641029
104 1 0.661929 0.430368 0.5 -0.107436 -0.350595
105 1 0.073798 0.171962 0.5 0.109835 0.813332
106 1 0.693482 0.170617 0.5 0.0658017 0.937093
107 1 0.920355 0.13641 0.5 -0.260781 0.124786
108 1 0.00211525 0.0980306 0.5 0.239059 0.719732
109 1 0.068521 0.846138 0.5 0.0667407 0.618633
110 1 0.963939 0.245545 0.5 0.754651 0.584055
111 1 0.117333 0.826327 0.5 0.900412 0.340025
112 1 0.912658 0.0356944 0.5 -0.630643 0.69054
113 1 0.967597 0.108648 0.5 -0.260441 0.826031
114 1 0.00218204 0.1709 0.5 0.34121 0.411326
115 1 0.924267 0.243229 0.5 -0.508173 -0.0439889
116 1 0.964095 0.0973937 0.5 -0.182097 0.595007
117 1 0.995987 0.0779193 0.5 0.619172 0.754153
118 1 0.20426 0.998607 0.5 -0.522977 0.327497
119 1 0.911237 0.0558307 0.5 0.402691 0.102349
120 1 0.1307 0.998307 0.5 0.88908 -0.0263545
121 1 0.915504 0.228855 0.5 -0.426903 0.303733
122 1 0.730531 0.272853 0.5 -0.653455 0.38682
123 1 0.0829631 0.337365 0.5 -0.631 0.247856
124 1 0.776569 0.186526 0.5 -0.0127171 -0.80387
125 1 0.895126 0.988892 0.5 -0.871465 0.339689
126 1 0.777748 0.0701048 0.5 0.788191 0.00735865
127 1 0.0876677 0.908851 0.5 0.530281 0.765401
128 1 0.988881 0.855092 0.5 0.900453 -0.297774
129 1 0.00207768 0.966823 0.5 0.496746 0.460587
130 1 0.742419 0.218055 0.5 5.02308e-05 0.186179
131 1 0.0947262 0.282171 0.5 -0.367921 0.571548
132 1 0.0560145 0.138318 0.5 -0.375822 0.67687
133 1 0.713851 0.736829 0.5 0.218823 -0.470813
134 1 0.197904 0.0726861 0.5 0.664624 0.26015
135 1 0.887352 0.0549459 0.5 0.876549 -0.0957134
136 1 0.0441415 0.984207 0.5 -0.0276498 0.0366216
137 1 0.165921 0.782601 0.5 -0.610656 0.0292668
138 1 0.784797 0.106696 0.5 0.441408 -0.618487
139 1 0.691477 0.794644 0.5 0.544123 0.775622
140 1 0.971939 0.99395 0.5 0.784584 -0.00245018
141 1 0.126285 0.210183 0.5 -0.3684 0.888498
142 1 0.302361 0.702565 0.5 -0.211175 0.760678
143 1 0.841573 0.374125 0.5 0.438209 -0.836315
144 1 0.141137 0.809571 0.5 -0.133575 0.330804
145 1 0.163333 0.791899 0.5 -0.121443 -0.0888355
146 1 0.913916 0.104142 0.5 -0.636603 0.52123
147 1 0.958649 0.15146 0.5 0.402208 0.869529
148 1 0.771226 0.233657 0.5 -0.463537 0.291898
149 1 0.189271 0.88336 0.5 0.370337 0.0185818
150 1 0.842005 0.0897233 0.5 -0.425634 0.478267
151 1 0.943124 0.213667 0.5 0.279611 0.932568
152 1 0.973734 0.136559 0.5 0.0127869 0.831453
153 1 0.750332 0.225052 0.5 0.0103283 0.366238
154 1 0.0531431 0.323999 0.5 -0.383341 0.381489
155 1 0.954794 0.66428 0.5 0.436532 -0.166793
156 1 0.274544 0.790758 0.5 -0.435947 -0.396418
157 1 0.188405 0.91165 0.5 0.651589 0.514869
158 1 0.108305 0.318774 0.5 -0.634446 0.698726
159 1 0.875298 0.435288 0.5 0.790182 0.116229
160 1 0.0802881 0.888522 0.5 0.607948 0.675775
161 1 0.774139 0.988028 0.5 0.226992 -0.671066
162 1 0.159396 0.965902 0.5 0.408431 0.808427
163 1 0.689523 0.0374142 0.5 0.948935 0.15901
164 1 0.84333 0.295234 0.5 0.0883155 0.260006
165 1 0.0534085 0.075791 0.5 0.021339 0.236599
166 1 0.964534 0.659547 0.5 -0.140366 -0.82392
167 1 0.725239 0.970073 0.5 0.872013 0.0347539
168 1 0.912953 0.870919 0.5 0.887639 -0.316066
169 1 0.0752061 0.141969 0.5 0.362441 0.58597
170 1 0.932489 0.984647 0.5 0.497521 0.756527
171 1 0.20705 0.85791 0.5 0.468427 0.472636
172 1 0.803676 0.109048 0.5 -0.52581 -0.554311
173 1 0.829021 0.0741514 0.5 0.76395 0.591816
174 1 0.951194 0.386667 0.5 -0.256951 -0.374922
175 1 0.790456 0.0861698 0.5 -0.126765 -0.331754
176 1 0.0902038 0.252162 0.5 -0.349634 0.854009
177 1 0.0979558 0.148051 0.5 -0.223218 0.775143
178 1 0.0259382 0.112588 0.5 0.19538 0.535902
179 1 0.125151 0.144073 0.5 0.346841 0.489118
180 1 0.981964 0.934874 0.5 0.47377 0.360556
181 1 0.532318 0.0637032 0.5 -0.426761 0.514429
182 1 0.0444103 0.840355 0.5 -0.42525 -0.0888722
183 1 0.977316 0.984861 0.5 0.697957 0.504683
184 1 0.0894115 0.964514 0.5 0.299147 0.687032
185 1 0.830231 0.118678 0.5 0.0951812 -0.677708
186 1 0.780597 0.146547 0.5 0.681943 0.159733
187 1 0.124961 0.894228 0.5 -0.137438 -0.666453
188 1 0.245011 0.838811 0.5 -0.694797 0.555424
189 1 0.249978 0.0102537 0.5 -0.834672 -0.13191
190 1 0.775246 0.138092 0.5 0.35962 0.0818381
191 1 0.991312 0.0954076 0.5 0.311707 0.73354
192 1 0.263517 0.906009 0.5 0.745547 0.285346
193 1 0.807256 0.16196 0.5 0.0564329 0.409229
194 1 0.758525 0.959287 0.5 0.55402 -0.42505
195 1 0.881309 0.101422 0.5 0.0878836 -0.227154
196 1 0.616248 0.0580177 0.5 -0.228584 0.686307
197 1 0.154572 0.0126898 0.5 0.690465 0.562682
198 1 0.0686763 0.300655 0.5 -0.322274 0.731708
199 1 0.189972 0.864553 0.5 0.443816 0.187544
200 1 0.36125 0.0645042 0.5 0.251972 0.136634
201 1 0.68939 0.840247 0.5 0.331498 -0.258527
202 1 0.892741 0.109223 0.5 0.350809 -0.33134
203 1 0.947191 0.318062 0.5 0.486849 -0.613185
204 1 0.876414 0.981702 0.5 -0.627117 0.54612
205 1 0.985458 0.103309 0.5 0.516683 0.716877
206 1 0.0446077 0.0798529 0.5 -0.272079 0.0169145
207 1 0.265731 0.953382 0.5 -0.546827 0.0899279
208 1 0.925335 0.686111 0.5 0.0170602 0.0165715
209 1 0.723103 0.230653 0.5 -0.731151 0.53081
210 1 0.119446 0.570962 0.5 -0.218937 0.854925
211 1 0.0187938 0.292884 0.5 -0.190643 0.819091
212 1 0.253984 0.940006 0.5 0.585809 0.335947
213 1 0.827554 0.956204 0.5 0.173247 -0.670455
214 1 0.594005 0.111774 0.5 -0.810717 0.00508551
215 1 0.0390524 0.230389 0.5 0.660507 0.571581
216 1 0.850317 0.115679 0.5 -0.212621 -0.898335
217 1 0.871537 0.0691645 0.5 -0.365582 0.254371
218 1 0.645294 0.989162 0.5 0.404269 0.548987
219 1 0.882057 0.110904 0.5 0.0229097 -0.550464
220 1 0.0207273 0.0661722 0.5 -0.245917 0.451983
221 1 0.842777 0.109322 0.5 -0.356361 -0.260901
222 1 0.949186 0.261763 0.5 0.642801 0.0883918
223 1 0.838039 0.129284 0.5 0.235364 -0.516756
224 1 0.700777 0.888371 0.5 0.781493 -0.0290685
225 1 0.700225 0.19004 0.5 -0.158747 0.426038
226 1 0.877522 0.155445 0.5 -0.567215 -0.403926
227 1 0.110226 0.994049 0.5 0.214662 0.368711
228 1 0.826626 0.781728 0.5 0.0689719 0.0519426
229 1 0.00718201 0.252182 0.5 0.0184663 0.834047
230 1 0.133211 0.78782 0.5 -0.0877152 -0.4589
231 1 0.98838 0.927098 0.5 0.513213 0.798025
232 1 0.18324 0.715091 0.5 -0.581369 -0.420905
233 1 0.80979 0.9938 0.5 0.889395 -0.244161
234 1 0.21932 0.86844 0.5 -0.1773 0.391424
235 1 0.797045 0.976086 0.5 0.225298 -0.745602
236 1 0.846193 0.0426639 0.5 0.00237239 0.224286
237 1 0.988082 0.985626 0.5 0.801922 0.185592
238 1 0.602734 0.203939 0.5 -0.246726 0.449186
239 1 0.117312 0.914751 0.5 0.353675 0.621282
240 1 0.832107 0.187209 0.5 -0.31452 0.721253
241 1 0.836636 0.0441729 0.5 0.19847 -0.724405
242 1 0.809571 0.950495 0.5 -0.293286 0.0829688
243 1 0.0121345 0.0716555 0.5 0.417682 0.585768
244 1 0.700229 0.916479 0.5 0.617488 0.585962
245 1 0.758767 0.280472 0.5 0.0200713 0.344965
246 1 0.734474 0.320941 0.5 0.158035 0.78572
247 1 0.84993 0.0270071 0.5 -0.119651 0.395059
248 1 0.785508 0.975955 0.5 0.198614 -0.676953
249 1 0.857424 0.248683 0.5 -0.219563 0.199787
250 1 0.771136 0.128351 0.5 -0.236872 -0.197017
251 1 0.953049 0.215582 0.5 0.341875 0.879958
252 1 0.826353 0.0558073 0.5 -0.470959 -0.691939
253 1 0.279592 0.863944 0.5 -0.484647 0.54144
254 1 0.741306 0.160625 0.5 0.325731 -0.311603
255 1 0.850253 0.0658664 0.5 0.552032 0.602561
256 1 0.306296 0.864241 0.5 -0.022791 0.644815
257 1 0.966866 0.00312787 0.5 0.413583 -0.142516
258 1 0.140242 0.9988 0.5 0.54544 0.422306
259 1 0.0911891 0.128718 0.5 0.120213 0.797601
260 1 0.119887 0.154328 0.5 0.361306 0.0386293
261 1 0.938374 0.912403 0.5 0.192729 0.507869
262 1 0.100932 0.893185 0.5 0.537056 0.741061
263 1 0.0791942 0.152369 0.5 0.3151 0.707093
264 1 0.0826075 0.108722 0.5 0.0027744 0.858801
265 1 0.814041 0.809427 0.5 0.321978 -0.253831
266 1 0.741786 0.197457 0.5 0.800301 0.115515
267 1 0.143532 0.139818 0.5 -0.156265 0.907791
268 1 0.897041 0.333718 0.5 -0.370174 -0.172016
269 1 0.0534528 0.94911 0.5 0.522475 0.805065
270 1 0.336571 0.218217 0.5 0.565216 0.290997
271 1 0.0431066 0.994295 0.5 0.288624 -0.352866
272 1 0.311892 0.82055 0.5 -0.533444 0.259677
273 1 0.162493 0.901555 0.5 0.751472 0.183904
274 1 0.809642 0.0318591 0.5 0.714426 -0.453104
275 1 0.0765121 0.960584 0.5 0.159966 0.35953
276 1 0.768441 0.0902456 0.5 0.624845 -0.584509
277 1 0.771228 0.0799177 0.5 0.726632 0.0348484
278 1 0.785628 0.154774 0.5 0.645657 0.114855
279 1 0.986463 0.23107 0.5 0.564613 0.480638
280 1 0.963567 0.970423 0.5 0.287078 0.554417
281 1 0.79043 0.145809 0.5 0.909943 -0.313714
282 1 0.87558 0.176306 0.5 0 0
283 1 0.57617 0.090205 0.5 -0.6069 0.675347
284 1 0.172909 0.989186 0.5 -0.0489065 0.822382
285 1 0.808315 0.0744581 0.5 0.039593 0.160442
286 1 0.780789 0.0146754 0.5 0.859745 -0.16104
287 1 0.865068 0.130982 0.5 -0.142676 -0.95817
288 1 0.354745 0.721136 0.5 -0.603042 -0.267308
289 1 0.166506 0.91219 0.5 0.664181 0.465565
290 1 0.900419 0.0816242 0.5 0.26142 0.498065
291 1 0.754555 0.107365 0.5 -0.473437 0.40663
292 1 0.731212 0.0980477 0.5 0.663598 -0.200661
293 1 0.364321 0.743491 0.5 -0.342575 0.530828
294 1 0.261715 0.815586 0.5 -0.603605 0.547195
295 1 0.98738 0.179088 0.5 0.775431 0.346889
296 1 0.86135 0.0097537 0.5 0.188858 -0.08171
297 1 0.975421 0.901424 0.5 0.619453 0.328345
298 1 0.00894432 0.889819 0.5 0.361652 0.259356
299 1 0.813554 0.106521 0.5 -0.626451 -0.520157
300 1 0.64822 0.0909283 0.5 -0.884621 0.421824
301 1 0.835552 0.00548004 0.5 -0.120992 -0.927466
302 1 0.731277 0.744087 0.5 0.643555 -0.276675
303 1 0.863203 0.200605 0.5 -0.776426 0.584931
304 1 0.196812 0.748101 0.5 -0.322793 -0.0795884
305 1 0.055486 0.382005 0.5 0.358619 0.438238
306 1 0.849605 0.938821 0.5 0.863808 0.0590966
307 1 0.950607 0.206344 0.5 0.275985 0.871653
308 1 0.831362 0.17708 0.5 -0.19148 0.875467
309 1 0.0385121 0.731302 0.5 0.586277 -0.143563
310 1 0.278008 0.782046 0.5 -0.316133 0.0329251
311 1 0.0586438 0.993565 0.5 0.0674368 0.523374
312 1 0.0809216 0.325599 0.5 -0.827901 0.0707616
313 1 0.373389 0.720827 0.5 0.441975 -0.136375
314 1 0.60435 0.185051 0.5 -0.555697 0.56387
315 1 0.970653 0.208679 0.5 0.338486 0.683787
316 1 0.270883 0.565008 0.5 -0.629083 -0.14634
317 1 0.962054 0.290282 0.5 0.163248 0.720062
318 1 0.0363637 0.204056 0.5 0.552395 0.561262
319 1 0.209766 0.398771 0.5 0.0534849 0.863988
320 1 0.030574 0.322395 0.5 0.409405 0.298789
321 1 0.246408 0.451349 0.5 0.328819 0.637029
322 1 0.43697 0.279411 0.5 -0.190784 0.541719
323 1 0.946506 0.196215 0.5 0.590143 0.085778
324 1 0.623213 0.0020043 0.5 0.0718517 0.957829
325 1 0.118311 0.322966 0.5 -0.521142 0.464275
326 1 0.700546 0.249815 0.5 -0.256053 0.429277
327 1 0.98176 0.130445 0.5 -0.146948 0.427286
328 1 0.947624 0.177434 0.5 0.662131 0.453705
329 1 0.764948 0.466998 0.5 -0.0304928 -0.233218
330 1 0.199689 0.255162 0.5 -0.00184488 0.601667
331 1 0.0162957 0.20035 0.5 0.271888 0.889262
332 1 0.0216834 0.4533 0.5 -0.118406 -0.638485
333 1 0.00817837 0.0415151 0.5 -0.246579 0.0837114
334 1 0.0891591 0.154252 0.5 -0.214364 0.723425
335 1 0.97799 0.201311 0.5 -0.0983938 0.565196
336 1 0.0471293 0.0202368 0.5 -0.469208 -0.479818
337 1 0.343142 0.449199 0.5 -0.727756 -0.44968
338 1 0.942449 0.116459 0.5 -0.600284 0.69875
339 1 0.783835 0.352786 0.5 -0.568621 -0.414401
340 1 0.937279 0.395312 0.5 0.190557 -0.00442538
341 1 0.983037 0.222411 0.5 0.162455 0.831195
342 1 0.141518 0.0555798 0.5 0.305617 0.515554
343 1 0.061597 0.461423 0.5 0.312321 0.16619
344 1 0.0602704 0.497887 0.5 0.0872052 0.751941
345 1 0.88249 0.361208 0.5 -0.119241 -0.922369
346 1 0.874214 0.0937588 0.5 0.0699251 0.137131
347 1 0.0271449 0.229213 0.5 0.820275 0.34304
348 1 0.243787 0.387684 0.5 0.00726114 0.980583
349 1 0.811592 0.304499 0.5 0.771476 -0.0785271
350 1 0.712023 0.274737 0.5 -0.584198 0.343463
351 1 0.150996 0.400853 0.5 -0.200189 0.684267
352 1 0.773991 0.206821 0.5 0.00931501 0.0280241
353 1 0.046659 0.285082 0.5 -0.180433 0.712987
354 1 0.0425953 0.446836 0.5 0.190496 0.00746457
355 1 0.405749 0.26189 0.5 0.468882 -0.224656
356 1 0.196089 0.329852 0.5 0.478774 0.788985
357 1 0.199239 0.511725 0.5 -0.0154085 0.853985
358 1 0.948529 0.349142 0.5 0.24518 0.00333572
359 1 0.123611 0.199811 0.5 -0.0917563 0.905988
360 1 0.244051 0.499107 0.5 -0.429478 0.085305
361 1 0.898738 0.193248 0.5 -0.714713 -0.114357
362 1 0.959891 0.187842 0.5 0.00281081 0.249655
363 1 0.865458 0.309744 0.5 -0.413217 0.188169
364 1 0.912809 0.178429 0.5 0.482226 -0.615966
365 1 0.811273 0.12689 0.5 -0.0108265 -0.420449
366 1 0.808996 0.208006 0.5 -0.474785 0.624974
367 1 0.154561 0.295914 0.5 0.0201656 -0.304958
368 1 0.0283601 0.295595 0.5 0.0988167 0.0242292
369 1 0.226044 0.451367 0.5 0.260625 0.340286
370 1 0.830369 0.0241117 0.5 -0.265319 -0.402317
371 1 0.86004 0.992894 0.5 0.186479 0.0355184
372 1 0.767802 0.0340438 0.5 0.593518 0.15754
373 1 0.893045 0.314523 0.5 0.0474445 -0.226687
374 1 0.921774 0.15971 0.5 0.769935 -0.101045
375 1 0.988681 0.139531 0.5 0.205619 -0.0894812
376 1 0.135696 0.00759286 0.5 0.539785 0.383317
377 1 0.272398 0.647829 0.5 0.0880657 -0.452169
378 1 0.143905 0.370113 0.5 -0.341503 0.860856
379 1 0.00698167 0.144748 0.5 -0.812275 0.483155
380 1 0.356773 0.190821 0.5 0.160412 0.227015
381 1 0.353284 0.305378 0.5 0.973742 -0.173386
382 1 0.829942 0.148539 0.5 -0.0559429 -0.210534
383 1 0.0234235 0.469502 0.5 0.103281 0.252994
384 1 0.924324 0.223195 0.5 -0.60844 0.0367527
385 1 0.228451 0.364247 0.5 0.530055 0.596325
386 1 0.140804 0.397923 0.5 -0.37229 0.68074
387 1 0.0715929 0.377005 0.5 0.087572 0.797043
388 1 0.630282 0.103466 0.5 -0.609621 0.474811
389 1 0.987359 0.0208853 0.5 0.675755 0.381183
390 1 0.0118749 0.437439 0.5 0.399743 0.728174
391 1 0.807113 0.256875 0.5 0.128275 -0.127499
392 1 0.0912354 0.382433 0.5 0.414152 0.830151
393 1 0.274242 0.593806 0.5 0.522396 0.0843711
394 1 0.785749 0.183182 0.5 0.0149007 0.0369805
395 1 0.364852 0.384585 0.5 -0.319339 0.663195
396 1 0.857621 0.277994 0.5 -0.395994 0.640907
397 1 0.300987 0.461726 0.5 0.246024 0.0727033
398 1 0.154755 0.910432 0.5 0.633539 0.508952
399 1 0.666064 0.0993352 0.5 -0.718475 0.622362
400 1 0.12608 0.528461 0.5 -0.557652 0.235742
401 1 0.762761 0.123353 0.5 -0.978266 -0.142187
402 1 0.0889981 0.411445 0.5 0.483725 0.712292
403 1 0.101783 0.450675 0.5 -0.0586685 0.768139
404 1 0.86016 0.40606 0.5 0.0510552 -0.913803
405 1 0.34374 0.276536 0.5 0.095614 -0.313307
406 1 0.211487 0.104249 0.5 0.150343 0.207522
407 1 0.93808 0.365771 0.5 0.320651 0.856034
408 1 0.638792 0.165144 0.5 -0.0465816 -0.0119809
409 1 0.435647 0.360627 0.5 0.221853 0.507391
410 1 0.0133252 0.272324 0.5 0.181464 0.921796
411 1 0.796942 0.275862 0.5 0.673014 -0.0972909
412 1 0.0300745 0.211264 0.5 0.630246 0.732542
413 1 0.808296 0.0508842 0.5 0.71211 -0.0279815
414 1 0.0483385 0.401546 0.5 0.02494 0.842315
415 1 0.923856 0.176633 0.5 0.654304 -0.298807
416 1 0.15168 0.508296 0.5 -0.105822 0.983403
417 1 0.844816 0.947315 0.5 0.550238 0.415872
418 1 0.0869484 0.0379626 0.5 0.357992 0.55015
419 1 0.212158 0.439128 0.5 0.315947 0.427315
420 1 0.895832 0.245666 0.5 0.146604 0.0137591
421 1 0.205937 0.190631 0.5 0.912724 0.197077
422 1 0.264417 0.348283 0.5 0.864319 0.409083
423 1 0.29986 0.313554 0.5 0.598932 0.0945778
424 1 0.176619 0.43998 0.5 -0.152045 0.873299
425 1 0.0262953 0.358102 0.5 0.186213 0.763917
426 1 0.0765002 0.435641 0.5 -0.107804 0.904137
427 1 0.284701 0.414575 0.5 0.332318 0.483676
428 1 0.240933 0.654531 0.5 -0.609325 0.561888
429 1 0.760658 0.180214 0.5 0.790636 -0.32858
430 1 0.768328 0.300267 0.5 0.693887 0.524327
431 1 0.65258 0.254674 0.5 -0.585404 -0.34798
432 1 0.107775 0.377849 0.5 -0.252039 0.924133
433 1 0.999229 0.318518 0.5 0.432566 0.709816
434 1 0.137286 0.281357 0.5 0.0341134 -0.180563
435 1 0.0415209 0.408283 0.5 0.188003 0.903919
436 1 0.896179 0.3041 0.5 -0.436314 -0.374764
437 1 0.289578 0.404788 0.5 0.542027 0.280794
438 1 0.165714 0.530489 0.5 0.271429 0.860536
439 1 0.931936 0.103322 0.5 -0.277043 0.875046
440 1 0.744333 0.11531 0.5 -0.664357 0.454228
441 1 0.149162 0.427435 0.5 -0.354226 0.898861
442 1 0.175617 0.380331 0.5 0.133411 0.720302
443 1 0.0548274 0.0267193 0.5 -0.214164 -0.175057
444 1 0.723781 0.406329 0.5 -0.374392 -0.802181
445 1 0.077495 0.368489 0.5 0.477005 0.739497
446 1 0.375799 0.455289 0.5 0.114642 -0.910767
447 1 0.800605 0.225548 0.5 -0.424421 0.248354
448 1 0.892311 0.747347 0.5 0.48119 0.210605
449 1 0.179575 0.450464 0.5 0.285263 0.823717
450 1 0.21059 0.370197 0.5 0.187062 0.923394
451 1 0.0718343 0.105999 0.5 0.0796136 0.727447
452 1 0.202507 0.320301 0.5 0.379221 0.611722
453 1 0.260091 0.339823 0.5 0.955574 0.229027
454 1 0.890687 0.0275518 0.5 0.173775 0.662518
455 1 0.991347 0.0299624 0.5 0.122192 -0.234358
456 1 0.102144 0.423451 0.5 -0.0845372 0.867142
457 1 0.0487863 0.438621 0.5 0.0612182 0.713073
458 1 0.721436 0.445051 0.5 0.547358 -0.519599
459 1 0.755301 0.26652 0.5 0.127784 -0.085585
460 1 0.0874461 0.209143 0.5 0.405419 0.591705
461 1 0.014594 0.446923 0.5 -0.0883235 0.119097
462 1 0.294261 0.302514 0.5 0.703042 0.605665
463 1 0.911478 0.159852 0.5 0.694402 0.297798
464 1 0.183752 0.461149 0.5 0.230155 0.867432
465 1 0.963661 0.300036 0.5 0.0831932 0.597265
466 1 0.0739197 0.339936 0.5 0.178615 0.0988342
467 1 0.0526728 0.129436 0.5 0.142297 0.622342
468 1 0.181527 0.220079 0.5 -0.093503 0.138652
469 1 0.89299 0.0633031 0.5 0.878961 0.132709
470 1 0.210814 0.428115 0.5 0.254595 0.272699
471 1 0.148169 0.226265 0.5 0.208238 0.814827
472 1 0.231762 0.567082 0.5 -0.210949 0.826879
473 1 0.183298 0.488188 0.5 0.264087 0.869624
474 1 0.0426676 0.456661 0.5 -0.257486 0.240525
475 1 0.133367 0.549219 0.5 -0.302282 0.728931
476 1 0.714618 0.189441 0.5 0.387558 -0.0275098
477 1 0.338622 0.330851 0.5 -0.0355854 -0.572862
478 1 0.0962905 0.362588 0.5 -0.399641 0.740348
479 1 0.99272 0.472448 0.5 -0.0877471 0.723884
480 1 0.994709 0.556776 0.5 -0.274779 -0.0954408
481 1 0.17802 0.569766 0.5 -0.319008 0.922184
482 1 0.082643 0.419226 0.5 0.0435823 0.870485
483 1 0.0358584 0.416369 0.5 -0.148622 0.794343
484 1 0.873539 0.224548 0.5 -0.439723 0.692639
485 1 0.809113 0.247122 0.5 -0.0829445 -0.685346
486 1 0.970991 0.293536 0.5 0.244739 0.724249
487 1 0.197951 0.207662 0.5 -0.51561 -0.216935
488 1 0.189488 0.986159 0.5 -0.141523 0.16227
489 1 0.220164 0.429483 0.5 0.402944 0.790203
490 1 0.136356 0.413915 0.5 0.35587 0.763477
491 1 0.60973 0.14758 0.5 -0.594093 0.579884
492 1 0.95062 0.0603548 0.5 0.3246 0.876785
493 1 0.872597 0.112094 0.5 0.660364 0.14601
494 1 0.0164035 0.461416 0.5 0.337017 0.294308
495 1 0.750929 0.439162 0.5 0.202433 -0.262893
496 1 0.830666 0.945873 0.5 0.305073 -0.0292632
497 1 0.875164 0.128658 0.5 0.496632 -0.845519
498 1 0.58239 0.0751287 0.5 -0.622202 0.524023
499 1 0.169403 0.245636 0.5 -0.0383712 -0.294113
500 1 0.968524 0.375316 0.5 -0.620939 0.731994
501 1 0.181666 0.204213 0.5 0.231707 -0.265515
502 1 0.694979 0.111928 0.5 -0.365055 0.456322
503 1 0.821779 0.111896 0.5 -0.754293 -0.564459
504 1 0.921961 0.534237 0.5 -0.652084 0.170665
505 1 0.188624 0.392015 0.5 0.00976956 0.952712
506 1 0.949644 0.186826 0.5 0.427797 0.0719474
507 1 0.162458 0.456776 0.5 0.133385 0.93002
508 1 0.00383822 0.270648 0.5 0.439325 0.77181
509 1 0.968018 0.280988 0.5 0.545268 0.720155
510 1 0.958084 0.370175 0.5 -0.335634 0.68214
511 1 0.060149 0.251544 0.5 -0.15903 0.16696
512 1 0.980763 0.646593 0.5 0.66555 -0.0796424
513 1 0.740937 0.370267 0.5 0.147073 -0.358406
514 1 0.0744461 0.561834 0.5 -0.401885 0.482949
515 1 0.0152061 0.128219 0.5 0.0413996 0.525131
516 1 0.97817 0.379293 0.5 -0.559911 0.480682
517 1 0.827139 0.0463585 0.5 -0.404716 -0.810671
518 1 0.23553 0.468229 0.5 0.753282 -0.0263461
519 1 0.0979786 0.653577 0.5 -0.66771 0.238034
520 1 0.940618 0.00601253 0.5 0.423599 0.744772
521 1 0.708186 0.242702 0.5 -0.0880914 0.67742
522 1 0.229585 0.555989 0.5 -0.151015 0.895759
523 1 0.837002 0.24086 0.5 -0.764411 0.360644
524 1 0.674555 0.0938902 0.5 -0.730374 0.565834
525 1 0.026749 0.386143 0.5 0.269343 0.501266
526 1 0.879641 0.145811 0.5 -0.439869 -0.574403
527 1 0.102323 0.345158 0.5 0 0
528 1 0.215609 0.569412 0.5 -0.320199 -0.0152942
529 1 0.915712 0.114303 0.5 -0.507317 0.586805
530 1 0.795687 0.15396 0.5 0.293518 -0.303935
531 1 0.0517069 0.459914 0.5 0.100868 0.337564
532 1 0.969155 0.31329 0.5 0.221942 0.448655
533 1 0.61438 0.129772 0.5 -0.198726 0.76208
534 1 0.152264 0.235756 0.5 0.453397 0.851041
535 1 0.953797 0.326617 0.5 0.178748 0.321181
536 1 0.0359923 0.626505 0.5 0.189239 -0.810227
537 1 0.035286 0.92758 0.5 0.453534 0.379204
538 1 0.201006 0.921873 0.5 0.688087 0.271467
539 1 0.149204 0.471331 0.5 0.108341 0.487844
540 1 0.168925 0.306532 0.5 0.579718 0.664135
541 1 0.293043 0.139157 0.5 0.778046 -0.53313
542 1 0.828212 0.166463 0.5 0.297822 0.920561
543 1 0.123086 0.544069 0.5 -0.22754 0.320466
544 1 0.00951597 0.261993 0.5 0.163066 0.753091
545 1 0.909204 0.121457 0.5 -0.0466845 0.174795
546 1 0.160718 0.395605 0.5 -0.058639 0.597247
547 1 0.136696 0.559025 0.5 -0.049041 0.80829
548 1 0.0624622 0.214713 0.5 0.720098 0.521713
549 1 0.0280599 0.256965 0.5 0.172585 0.907888
550 1 0.944091 0.327539 0.5 -0.177546 -0.295627
551 1 0.02262 0.30324 0.5 0.609044 0.625879
552 1 0.851064 0.371786 0.5 -0.135858 -0.759282
553 1 0.0284514 0.286117 0.5 -0.667848 0.311456
554 1 0.269044 0.657243 0.5 0.00681247 -0.369424
555 1 0.986392 0.306061 0.5 0.249066 0.763274
556 1 0.785969 0.292339 0.5 0.900879 0.291173
557 1 0.962643 0.451955 0.5 0.456375 -0.680413
558 1 0.0977959 0.0962403 0.5 0.3938 0.641387
559 1 0.860089 0.377036 0.5 -0.271463 -0.685522
560 1 0.876025 0.236228 0.5 -0.446266 0.462539
561 1 0.622854 0.181163 0.5 -0.342458 0.884645
562 1 0.176218 0.68936 0.5 -0.850028 -0.462963
563 1 0.925242 0.119418 0.5 -0.590087 0.662889
564 1 0.7078 0.207067 0.5 -0.390139 0.266597
565 1 0.943636 0.494329 0.5 -0.366467 -0.0919312
566 1 0.0405885 0.212874 0.5 0.744568 0.62435
567 1 0.0163985 0.109884 0.5 0.0660282 0.739069
568 1 0.68303 0.45706 0.5 -0.47629 -0.512175
569 1 0.851386 0.187127 0.5 -0.432311 0.325471
570 1 0.648016 0.163655 0.5 0.168163 0.190245
571 1 0.158457 0.537702 0.5 0.226226 0.874101
572 1 0.989195 0.461829 0.5 -0.188559 0.364933
573 1 0.056555 0.286862 0.5 -0.351911 0.644657
574 1 0.941813 0.385004 0.5 0.170167 0.446186
575 1 0.093365 0.571807 0.5 -0.432199 0.487394
576 1 0.903014 0.275317 0.5 -0.434713 0.669173
577 1 0.876563 0.344638 0.5 -0.385863 -0.772453
578 1 0.920291 0.524831 0.5 -0.68046 0.569345
579 1 0.152042 0.454078 0.5 0.307334 0.422857
580 1 0.809086 0.322798 0.5 0.440929 0.815207
581 1 0.274692 0.420939 0.5 -0.00161048 0.772132
582 1 0.121536 0.265865 0.5 -0.636497 0.40055
583 1 0.853517 0.334114 0.5 0.690795 -0.268073
584 1 0.950125 0.160203 0.5 0.100863 0.480406
585 1 0.887764 0.551689 0.5 0.462397 0.468861
586 1 0.164566 0.254159 0.5 -0.147226 -0.678881
587 1 0.771031 0.0614499 0.5 0.584016 0.0173592
588 1 0.606802 0.262061 0.5 -0.499821 0.811249
589 1 0.110303 0.339656 0.5 -0.468182 0.405515
590 1 0.181066 0.372458 0.5 0.315493 0.753636
591 1 0.962622 0.160964 0.5 0.364755 0.793759
592 1 0.725232 0.240482 0.5 -0.603158 0.761859
593 1 0.107862 0.241727 0.5 -0.652472 0.225868
594 1 0.17335 0.522851 0.5 -0.135885 0.733059
595 1 0.288835 0.357849 0.5 0.667072 0.374054
596 1 0.101704 0.974368 0.5 0.394509 0.708791
597 1 0.319922 0.558838 0.5 0.323101 -0.698258
598 1 0.988797 0.205977 0.5 0.117374 0.597565
599 1 0.88639 0.251803 0.5 -0.758409 -0.131598
600 1 0.851599 0.672533 0.5 0.27995 -0.403818
601 1 0.981612 0.120502 0.5 -0.0652283 0.58328
602 1 0.0676041 0.65619 0.5 0.585447 0.565785
603 1 0.250474 0.532896 0.5 0.511592 0.547942
604 1 0.820595 0.24235 0.5 -0.599688 -0.135103
605 1 0.981322 0.323497 0.5 0.446207 0.604267
606 1 0.719803 0.0985683 0.5 0.345326 -0.573243
607 1 0.933794 0.355616 0.5 0.527605 0.407729
608 1 0.137246 0.455111 0.5 -0.349483 -0.187474
609 1 0.0227484 0.638121 0.5 0.470015 -0.868422
610 1 0.745052 0.171305 0.5 0.429622 0.392687
611 1 0.957128 0.197126 0.5 0.448934 0.237762
612 1 0.0826825 0.999793 0.5 -0.101023 0.853691
613 1 0.753687 0.117612 0.5 -0.611557 0.199719
614 1 0.0221664 0.237447 0.5 0.709202 0.372138
615 1 0.430596 0.286473 0.5 -0.137541 0.878911
616 1 0.815538 0.191545 0.5 -0.444752 0.817779
617 1 0.96956 0.385015 0.5 -0.730794 0.3431
618 1 0.687542 0.178245 0.5 -0.0740237 0.842473
619 1 0.0660267 0.396581 0.5 -0.331848 0.746014
620 1 0.0313386 0.162264 0.5 -0.29878 0.747166
621 1 0.154245 0.51798 0.5 -0.27835 0.924049
622 1 0.222181 0.485296 0.5 0.466383 0.60096
623 1 0.386187 0.452244 0.5 0.252138 -0.911522
624 1 0.118449 0.610421 0.5 -0.242606 0.530678
625 1 0.0387665 0.371103 0.5 0.122562 0.842381
626 1 0.0612728 0.319367 0.5 -0.454274 -0.165642
627 1 0.112694 0.398411 0.5 0.2293 0.788971
628 1 0.118085 0.35239 0.5 0.0803329 -0.150525
629 1 0.813409 0.0232022 0.5 -0.125423 0.110944
630 1 0.0656103 0.528594 0.5 -0.244875 0.88551
631 1 0.194503 0.607856 0.5 -0.189351 0.807987
632 1 0.964981 0.332051 0.5 -0.148518 0.533894
633 1 0.915976 0.238402 0.5 -0.811703 -0.101454
634 1 0.940398 0.290014 0.5 0.814041 0.282671
635 1 0.681512 0.133534 0.5 -0.656759 0.629687
636 1 0.93955 0.203313 0.5 0.420393 0.361799
637 1 0.894824 0.455082 0.5 -0.314243 0.781159