ITEM: TIMESTEP
0
ITEM: NUMBER OF ATOMS
9250
ITEM: BOX BOUNDS pp pp pp
-5.8359999999999999e+01 5.8359999999999999e+01
-5.8359999999999999e+01 5.8359999999999999e+01
-5.0000000000000000e-01 5.0000000000000000e-01
ITEM: ATOMS id type xs ys zs c_002[1] c_002[2]
1 1 0.133642 0.672412 0.5 0.0181411 -0.0398885
2 1 0.362851 0.819977 0.5 -0.336175 0.0101131
3 1 0.250398 0.968986 0.5 -0.35085 -0.504839
4 1 0.190608 0.846992 0.5 0.736138 -0.393024
5 1 0.272992 0.929083 0.5 -0.198574 -0.0864938
6 1 0.807539 0.285851 0.5 -0.0849086 -0.842243
7 1 0.0911832 0.507262 0.5 0.0354593 0.110192
8 1 0.892273 0.524098 0.5 -0.0717905 0.443057
9 1 0.90696 0.0579326 0.5 0.371076 0.055006
10 1 0.145378 0.932282 0.5 0.607802 -0.614821
11 1 0.904853 0.826315 0.5 0.729578 -0.413892
12 1 0.234094 0.505272 0.5 -0.168122 0.555648
13 1 0.191078 0.93655 0.5 0.108 -0.50551
14 1 0.409358 0.926622 0.5 0.239541 0.269735
15 1 0.802558 0.934853 0.5 -0.16324 -0.483694
16 1 0.979198 0.361912 0.5 0.669028 0.366516
17 1 0.214842 0.176305 0.5 0.616902 -0.153753
18 1 0.296577 0.166296 0.5 0.187002 -0.417961
19 1 0.539545 0.269571 0.5 -0.846266 -0.264089
20 1 0.188164 0.0791879 0.5 0.18166 -0.00097838
21 1 0.2669 0.363891 0.5 0.0500154 -0.207275
22 1 0.0648427 0.329159 0.5 0.52108 0.273157
23 1 0.281602 0.286561 0.5 0.103404 -0.331283
24 1 0.871758 0.680436 0.5 0.15624 -0.00176547
25 1 0.891831 0.0768189 0.5 0.105911 -0.339827
26 1 0.0486321 0.335514 0.5 0.624485 0.251607
27 1 0.166015 0.515462 0.5 -0.0916544 0.894384
28 1 0.913055 0.65375 0.5 0.321094 0.278311
29 1 0.184974 0.517801 0.5 0.46475 -0.557276
30 1 0.606343 0.00624445 0.5 0.415576 -0.766683
31 1 0.896766 0.104694 0.5 0.844613 0.0592199
32 1 0.122552 0.727942 0.5 0.0719875 -0.137351
33 1 0.0611611 0.463237 0.5 0.358635 -0.548563
34 1 0.980209 0.0342315 0.5 0.714966 0.572302
35 1 0.00436124 0.544323 0.5 0.42789 0.477504
36 1 0.697098 0.377669 0.5 0.721366 -0.356453
37 1 0.930442 0.221442 0.5 0.101143 -0.419029
38 1 0.951621 0.348338 0.5 0.117816 0.471121
39 1 0.901115 0.173229 0.5 0.169715 0.201416
40 1 0.186719 0.472139 0.5 -0.387411 0.759434
41 1 0.975797 0.335292 0.5 0.00575242 0.413082
42 1 0.0730078 0.159701 0.5 0.592574 0.274291
43 1 0.798365 0.749806 0.5 0.689713 -0.46742
44 1 0.921715 0.966535 0.5 -0.17806 0.1341
45 1 0.904869 0.21124 0.5 0.648995 0.639956
46 1 0.934814 0.826166 0.5 0.345573 0.0801067
47 1 0.130802 0.616911 0.5 0.121631 -0.0738149
48 1 0.383893 0.410549 0.5 0.566133 0.460811
49 1 0.696546 0.962006 0.5 0.137521 0.486496
50 1 0.364584 0.915871 0.5 -0.0121479 0.594231
51 1 0.31784 0.771855 0.5 -0.139702 0.123161
52 1 0.0859774 0.543178 0.5 0.513706 0.361669
53 1 0.0426886 0.947652 0.5 0.540606 -0.596625
54 1 0.0570652 0.119788 0.5 0.247148 0.0333624
55 1 0.12721 0.57781 0.5 0.120116 0.213401
56 1 0.43816 0.793394 0.5 0.140536 0.13897
57 1 0.145656 0.0885379 0.5 0.571804 0.455745
58 1 0.181598 0.452401 0.5 -0.171969 0.581781
59 1 0.991401 0.0360748 0.5 0.48533 0.543741
60 1 0.0933629 0.692202 0.5 -0.659619 0.0538982
61 1 0.0448588 0.79277 0.5 -0.756815 0.014805
62 1 0.238643 0.978863 0.5 -0.149028 0.44391
63 1 0.812153 0.521284 0.5 0.511466 -0.371408
64 1 0.904707 0.588603 0.5 0.23315 0.0135133
65 1 0.785982 0.837303 0.5 -0.228781 -0.51158
66 1 0.138945 0.749229 0.5 0.348949 -0.349292
67 1 0.0704659 0.533207 0.5 -0.114663 0.484902
68 1 0.814222 0.598332 0.5 0.186093 -0.566252
69 1 0.633753 0.964402 0.5 0.0638977 0.520286
70 1 0.980331 0.575197 0.5 0 0
71 1 0.143421 0.587185 0.5 -0.0900945 0.649957
72 1 0.012812 0.756356 0.5 -0.313994 0.281978
73 1 0.224355 0.212559 0.5 -0.195934 0.544381
74 1 0.257598 0.295 0.5 0.412663 0.448481
75 1 0.189425 0.173287 0.5 -0.275352 0.131357
76 1 0.900457 0.297975 0.5 -0.0750655 -0.655145
77 1 0.0550784 0.204052 0.5 -0.0288131 -0.603189
78 1 0.133206 0.556389 0.5 -0.0125069 -0.342771
79 1 0.960054 0.761456 0.5 0.671498 -0.621382
80 1 0.921102 0.174794 0.5 0.673239 0.221018
81 1 0.213236 0.0237494 0.5 -0.335581 0.144754
82 1 0.0280345 0.583343 0.5 0.16985 0.391597
83 1 0.952487 0.184678 0.5 0.371074 0.527307
84 1 0.00706488 0.046809 0.5 0.379071 0.791381
85 1 0.310906 0.890747 0.5 0.593338 0.176376
86 1 0.96465 0.140037 0.5 0.0361432 0.121789
87 1 0.962662 0.122795 0.5 0.203287 0.127247
88 1 0.184885 0.404827 0.5 0.0608215 -0.668057
89 1 0.201256 0.408493 0.5 -0.200499 -0.839599
90 1 0.127282 0.544629 0.5 0.631194 0.575654
91 1 0.0784502 0.955045 0.5 0.353753 0.31284
92 1 0.890016 0.201235 0.5 0.394223 0.787193
93 1 0.294901 0.0413403 0.5 -0.392825 -0.409984
94 1 0.933532 0.598433 0.5 0.349925 0.302837
95 1 0.215028 0.207812 0.5 -0.287873 0.64767
96 1 0.147846 0.2754 0.5 -0.229667 0.364914
97 1 0.779734 0.740143 0.5 0.370991 -0.157692
98 1 0.84658 0.912093 0.5 -0.77058 -0.243881
99 1 0.99416 0.524949 0.5 0.93245 -0.124817
100 1 0.126764 0.665113 0.5 -0.0852387 -0.283056
101 1 0.0296918 0.964071 0.5 0.192754 -0.0342464
102 1 0.488873 0.0800362 0.5 0.29098 0.445022
103 1 0.351048 0.0962272 0.5 0.27789 -0.869632
104 1 0.0432125 0.555044 0.5 -0.488472 0.114768
105 1 0.262248 0.478004 0.5 -0.415908 -0.720251
106 1 0.169165 0.498799 0.5 0.826416 -0.00370079
107 1 0.0499898 0.0304553 0.5 0.00202513 0.51337
108 1 0.91419 0.51529 0.5 0.157042 -0.166883
109 1 0.833588 0.0921109 0.5 0.183924 0.011009
110 1 0.901114 0.612474 0.5 0.100188 -0.531945
111 1 0.867943 0.287661 0.5 0.533237 -0.732408
112 1 0.173079 0.935735 0.5 -0.111194 -0.193129
113 1 0.741447 0.101631 0.5 0.489452 -0.152351
114 1 0.875037 0.414787 0.5 -0.595434 0.46352
115 1 0.330421 0.264354 0.5 0.284367 0.724278
116 1 0.947568 0.773579 0.5 -0.44285 0.131279
117 1 0.797953 0.289724 0.5 -0.230547 -0.729472
118 1 0.669095 0.449856 0.5 0.867113 -0.394528
119 1 0.45835 0.0203301 0.5 -0.291008 -0.0945389
120 1 0.835466 0.597059 0.5 0.245365 0.320464
121 1 0.854842 0.127342 0.5 0.106888 -0.302561
122 1 0.905873 0.705147 0.5 -0.28761 -0.520585
123 1 0.990372 0.304391 0.5 -0.0110645 0.263301
124 1 0.074761 0.108192 0.5 0.72047 0.141343
125 1 0.100536 0.801174 0.5 0.0597384 0.677345
126 1 0.796562 0.209955 0.5 -0.467592 -0.0164213
127 1 0.310785 0.681556 0.5 -0.743588 0.383932
128 1 0.220218 0.0447546 0.5 0.22433 -0.280001
129 1 0.37652 0.463651 0.5 -0.0267582 -0.641402
130 1 0.999386 0.972087 0.5 -0.704364 -0.303021
131 1 0.0864995 0.142761 0.5 -0.118249 -0.0679498
132 1 0.226995 0.166872 0.5 -0.16555 -0.341048
133 1 0.336323 0.143393 0.5 -0.314643 -0.24334
134 1 0.0674384 0.188343 0.5 0.351968 -0.0896122
135 1 0.0112204 0.563487 0.5 0.818386 0.45838
136 1 0.116279 0.172958 0.5 -0.428754 -0.470786
137 1 0.207821 0.92186 0.5 0.0401997 -0.300575
138 1 0.359821 0.847733 0.5 -0.179794 0.805871
139 1 0.363143 0.830263 0.5 -0.40092 0.407283
140 1 0.0835191 0.996799 0.5 0.0200445 -0.713598
141 1 0.279278 0.313994 0.5 0.686892 0.546353
142 1 0.99002 0.220806 0.5 0.377038 -0.128244
143 1 0.874698 0.33243 0.5 0.3366 -0.624295
144 1 0.0526411 0.0527654 0.5 0.0473413 -0.367293
145 1 0.981399 0.228818 0.5 -0.569759 0.169127
146 1 0.940101 0.0552846 0.5 0.324448 0.785759
147 1 0.318305 0.506206 0.5 -0.402442 -0.136887
148 1 0.0302518 0.0127608 0.5 0.22692 -0.204238
149 1 0.652714 0.797178 0.5 0.679774 -0.0996686
150 1 0.132791 0.454374 0.5 0.526392 0.0775775
151 1 0.196571 0.0841109 0.5 0.383936 0.0951258
152 1 0.843114 0.309024 0.5 0.589929 -0.0609302
153 1 0.239986 0.276723 0.5 0.260919 0.117306
154 1 0.183243 0.433012 0.5 -0.53936 -0.750864
155 1 0.273211 0.165973 0.5 -0.383452 0.043247
156 1 0.822242 0.192459 0.5 0.614397 0.18509
157 1 0.881922 0.0795618 0.5 0.322922 -0.613535
158 1 0.86766 0.507702 0.5 0.073055 -0.176835
159 1 0.912705 0.962285 0.5 -0.866069 0.328609
160 1 0.491845 0.0412278 0.5 -0.14248 -0.572105
161 1 0.964796 0.0981632 0.5 0.349913 -0.513393
162 1 0.145906 0.215015 0.5 0.276283 0.617133
163 1 0.18198 0.865884 0.5 -0.0461665 -0.475828
164 1 0.521022 0.591655 0.5 -0.151156 0.034062
165 1 0.981851 0.412053 0.5 0.423265 0.589461
166 1 0.107538 0.272905 0.5 -0.190055 -0.380027
167 1 0.345025 0.535023 0.5 -0.725951 -0.501658
168 1 0.956458 0.102606 0.5 -0.00385584 0.255061
169 1 0.289274 0.39796 0.5 0.28285 -0.453906
170 1 0.296279 0.900159 0.5 0.0283959 -0.557099
171 1 0.64811 0.92676 0.5 -0.221321 -0.430232
172 1 0.237686 0.197307 0.5 -0.00934312 0.611553
173 1 0.865418 0.42085 0.5 -0.74523 -0.0760159
174 1 0.355437 0.222416 0.5 0.808098 -0.143225
175 1 0.839128 0.366934 0.5 0.44681 -0.236879
176 1 0.0134053 0.319602 0.5 0.742118 0.554116
177 1 0.846722 0.640481 0.5 -0.633957 -0.240699
178 1 0.64715 0.215467 0.5 -0.214595 0.381291
179 1 0.876709 0.267403 0.5 0.745729 0.021621
180 1 0.986221 0.811898 0.5 0.0303973 0.411086
181 1 0.272311 0.371595 0.5 0.529253 -0.443133
182 1 0.0517961 0.536407 0.5 0.180393 -0.216007
183 1 0.191153 0.0930978 0.5 -0.368508 -0.262361
184 1 0.541879 0.894591 0.5 -0.718799 0.555608
185 1 0.0927163 0.702365 0.5 0.0935504 -0.0187211
186 1 0.830571 0.327904 0.5 0.139053 0.517057
187 1 0.14547 0.69311 0.5 0.568391 0.331703
188 1 0.73596 0.943976 0.5 -0.511305 -0.555248
189 1 0.0975037 0.109387 0.5 0.093618 0.385277
190 1 0.65734 0.118124 0.5 -0.581439 -0.295562
191 1 0.163009 0.431217 0.5 -0.346783 -0.257804
192 1 0.216822 0.101387 0.5 0 0
193 1 0.213761 0.560753 0.5 -0.280405 -0.310918
194 1 0.151428 0.0718669 0.5 0.144476 -0.000558321
195 1 0.513653 0.094765 0.5 0.06736 0.12553
196 1 0.807626 0.469491 0.5 0.0130431 0.846892
197 1 0.169854 0.246202 0.5 0.172898 -0.055761
198 1 0.130595 0.605342 0.5 0.339524 0.328408
199 1 0.404619 0.3059 0.5 -0.172164 0.761032
200 1 0.429883 0.0231702 0.5 -0.183495 0.844639
201 1 0.392905 0.148863 0.5 0.773551 -0.170572
202 1 0.307675 0.412335 0.5 -0.619064 -0.588356
203 1 0.00738495 0.12855 0.5 -0.555592 0.0841169
204 1 0.354551 0.381813 0.5 -0.615643 0.282182
205 1 0.036951 0.48147 0.5 0.513616 0.71611
206 1 0.992631 0.284224 0.5 -0.287674 -0.598335
207 1 0.172282 0.447811 0.5 -0.610869 0.315323
208 1 0.883871 0.115647 0.5 0.0504251 -0.585494
209 1 0.978871 0.21886 0.5 0.0959463 0.14478
210 1 0.860692 0.327428 0.5 0.151673 -0.0311325
211 1 0.126542 0.329813 0.5 0 0
212 1 0.908405 0.992114 0.5 0.425635 0.120361
213 1 0.380483 0.997149 0.5 -0.187931 0.323915
214 1 0.33421 0.337789 0.5 0.0923227 -0.274881
215 1 0.0894132 0.0125528 0.5 -0.0230651 -0.424393
216 1 0.0589441 0.891943 0.5 0.307108 0.250945
217 1 0.921853 0.474205 0.5 0.550943 -0.262008
218 1 0.481277 0.118092 0.5 0.216656 0.583773
219 1 0.149833 0.612375 0.5 0.0536993 -0.302167
220 1 0.878787 0.286934 0.5 0.184708 -0.3085
221 1 0.966814 0.467232 0.5 0.516198 0.186462
222 1 0.275061 0.214776 0.5 0.507483 0.419881
223 1 0.0326929 0.441124 0.5 0.397392 0.518681
224 1 0.169277 0.390613 0.5 -0.396307 -0.200772
225 1 0.365887 0.310804 0.5 0.264852 -0.0612468
226 1 0.256504 0.440312 0.5 -0.342732 -0.355065
227 1 0.100106 0.920951 0.5 0.102864 -0.915062
228 1 0.253355 0.789149 0.5 -0.287442 0.424492
229 1 0.245238 0.16747 0.5 0.0283912 0.0580321
230 1 0.198436 0.63882 0.5 0.549339 0.132347
231 1 0.284975 0.704249 0.5 -0.335057 0.0706235
232 1 0.146991 0.126799 0.5 -0.104002 0.112605
233 1 0.0493874 0.547657 0.5 -0.0457899 0.100889
234 1 0.453033 0.367349 0.5 0.108495 0.350815
235 1 0.119194 0.358794 0.5 0 0
236 1 0.000254757 0.482971 0.5 -0.502982 0.763991
237 1 0.0804622 0.0371548 0.5 0.329508 0.345104
238 1 0.247339 0.430079 0.5 0.103001 -0.259101
239 1 0.131831 0.656607 0.5 -0.0947682 -0.760504
240 1 0.518191 0.647562 0.5 -0.447846 -0.702242
241 1 0.0568445 0.634101 0.5 0.359652 -0.478263
242 1 0.137798 0.0021606 0.5 -0.585109 0.715774
243 1 0.996802 0.79535 0.5 0.112463 -0.738159
244 1 0.861416 0.462865 0.5 0.380225 0.56868
245 1 0.161474 0.85574 0.5 -0.662435 0.176207
246 1 0.0837467 0.611789 0.5 -0.0485297 0.696441
247 1 0.944371 0.861019 0.5 0.186188 -0.447723
248 1 0.351425 0.318163 0.5 0.0129037 0.288477
249 1 0.761123 0.142397 0.5 -0.354946 0.0783173
250 1 0.167556 0.380713 0.5 -0.811463 0.070418
251 1 0.0734876 0.945059 0.5 0.351875 0.33568
252 1 0.917953 0.993266 0.5 0.919443 0.212725
253 1 0.250211 0.237968 0.5 -0.122337 -0.952738
254 1 0.248813 0.648419 0.5 0.697729 0.303836
255 1 0.388747 0.0256246 0.5 -0.798766 0.183931
256 1 0.287106 0.894024 0.5 -0.629626 0.285802
257 1 0.048826 0.494264 0.5 -0.0373818 0.943361
258 1 0.343083 0.194237 0.5 0.41954 -0.14318
259 1 0.122235 0.116683 0.5 0.740893 0.581791
260 1 0.0657207 0.43224 0.5 -0.0423858 -0.661229
261 1 0.175325 0.460283 0.5 -0.354982 0.683837
262 1 0.213311 0.902598 0.5 -0.292503 -0.710212
263 1 0.353176 0.67658 0.5 0.02613 -0.505096
264 1 0.217359 0.121975 0.5 -0.623616 -0.338079
265 1 0.27279 0.5539 0.5 0.249902 -0.112884
266 1 0.710829 0.0427461 0.5 0.224596 0.22734
267 1 0.710184 0.709539 0.5 0.627762 -0.229605
268 1 0.997956 0.833198 0.5 0.579326 -0.0810835
269 1 0.715951 0.17884 0.5 -0.37597 -0.527778
270 1 0.850965 0.383989 0.5 0.0297301 0.368284
271 1 0.349544 0.214579 0.5 0.783621 0.134784
272 1 0.158507 0.553297 0.5 -0.274092 0.186162
273 1 0.212054 0.80256 0.5 0.31438 0.270856
274 1 0.949239 0.930099 0.5 -0.807722 -0.220957
275 1 0.35789 0.925681 0.5 0.175575 0.707848
276 1 0.108837 0.320114 0.5 -0.605288 0.639175
277 1 0.138558 0.861449 0.5 0.172977 0.0491354
278 1 0.231758 0.96071 0.5 0.48975 0.33707
279 1 0.796028 0.437079 0.5 -0.75885 -0.158145
280 1 0.967289 0.150383 0.5 0.217659 0.361868
281 1 0.245583 0.411433 0.5 0.487389 0.477976
282 1 0.866766 0.490653 0.5 0.356904 -0.0605339
283 1 0.271272 0.526018 0.5 0.285671 0.426987
284 1 0.302167 0.519568 0.5 0.0924893 -0.00602208
285 1 0.0638739 0.945785 0.5 0.801265 0.239901
286 1 0.135749 0.952531 0.5 0.393087 0.0744581
287 1 0.209258 0.0440657 0.5 0.388163 -0.398729
288 1 0.955456 0.487206 0.5 -0.323791 0.495999
289 1 0.924751 0.541247 0.5 0.535116 -0.208626
290 1 0.0758444 0.0181887 0.5 0.356792 0.495791
291 1 0.977633 0.724568 0.5 0.347897 -0.204575
292 1 0.561785 0.941495 0.5 0.721604 -0.460739
293 1 0.293147 0.825188 0.5 -0.186559 0.2151
294 1 0.188384 0.706599 0.5 0.676608 0.18134
295 1 0.953886 0.802839 0.5 0.108846 0.871389
296 1 0.715038 0.522814 0.5 0.730615 0.240476
297 1 0.143967 0.869118 0.5 -0.324846 0.283615
298 1 0.058671 0.299563 0.5 -0.00955305 0.442818
299 1 0.201861 0.52175 0.5 0.19646 -0.301231
300 1 0.224002 0.335909 0.5 0.534153 -0.350797
301 1 0.401115 0.775644 0.5 0 0
302 1 0.182787 0.557964 0.5 -0.122299 -0.0577315
303 1 0.388211 0.574095 0.5 -0.328523 0.181638
304 1 0.0175454 0.736468 0.5 0.7504 0.458375
305 1 0.605881 0.467847 0.5 -0.665249 0.324508
306 1 0.10556 0.187051 0.5 -0.81207 -0.259406
307 1 0.357543 0.686252 0.5 -0.00286826 0.00426366
308 1 0.151366 0.701161 0.5 0.810446 0.0811144
309 1 0.872231 0.776805 0.5 -0.313559 0.0321629
310 1 0.0995796 0.562159 0.5 -0.281714 0.129743
311 1 0.705433 0.417819 0.5 0.389137 0.652309
312 1 0.068508 0.726904 0.5 -0.785218 0.297504
313 1 0.256214 0.394553 0.5 0.387546 -0.236411
314 1 0.791024 0.651184 0.5 -0.104071 0.952604
315 1 0.18513 0.818313 0.5 0.324054 -0.480389
316 1 0.981019 0.0699331 0.5 -0.298948 0.0396514
317 1 0.812057 0.548485 0.5 0.792493 -0.215957
318 1 0.802587 0.570397 0.5 0.482023 -0.82469
319 1 0.157108 0.27102 0.5 -0.297245 0.600834
320 1 0.117839 0.660723 0.5 0.0419351 0.620242
321 1 0.364133 0.42939 0.5 0.583028 0.333223
322 1 0.633904 0.484368 0.5 -0.0367121 -0.657424
323 1 0.0700562 0.419554 0.5 0.238161 -0.48274
324 1 0.918717 0.308484 0.5 -0.271957 -0.225196
325 1 0.183596 0.569117 0.5 -0.0708813 0.171671
326 1 0.234805 0.467568 0.5 -0.535543 -0.476647
327 1 0.242643 0.350986 0.5 -0.102518 0.625107
328 1 0.400214 0.667675 0.5 -0.431721 0.627565
329 1 0.265592 0.847985 0.5 -0.0474948 -0.443867
330 1 0.170333 0.622143 0.5 0.0297506 -0.517545
331 1 0.272426 0.688576 0.5 -0.440689 0.610098
332 1 0.253622 0.265776 0.5 -0.579432 -0.026697
333 1 0.0423268 0.473705 0.5 0.518391 0.624814
334 1 0.174794 0.426727 0.5 -0.38833 -0.830564
335 1 0.00170546 0.744109 0.5 0.429841 0.0601742
336 1 0.970439 0.826189 0.5 0.0989173 0.795977
337 1 0.154259 0.993582 0.5 0.215606 -0.277874
338 1 0.114117 0.501732 0.5 0.263652 -0.703767
339 1 0.952804 0.707945 0.5 -0.0446083 0.140535
340 1 0.030563 0.694145 0.5 -0.14909 0.847286
341 1 0.336666 0.713839 0.5 -0.121428 -0.844625
342 1 0.0960275 0.264905 0.5 -0.322564 -0.717272
343 1 0.823157 0.300594 0.5 -0.112211 -0.895867
344 1 0.338422 0.792263 0.5 -0.611402 0.00919542
345 1 0.260414 0.739239 0.5 -0.167669 0.0220608
346 1 0.745949 0.524417 0.5 0.89952 0.245774
347 1 0.122779 0.809025 0.5 -0.580235 0.456076
348 1 0.255345 0.508832 0.5 0.445844 0.404114
349 1 0.107953 0.671275 0.5 -0.129072 -0.274933
350 1 0.15899 0.497866 0.5 0.157631 -0.213355
351 1 0.947286 0.173972 0.5 -0.0798986 0.384865
352 1 0.668045 0.919906 0.5 0.08705 -0.591166
353 1 0.019351 0.904026 0.5 0.576426 -0.18469
354 1 0.999942 0.716406 0.5 0 0
355 1 0.470821 0.74493 0.5 -0.242229 -0.852245
356 1 0.396622 0.237024 0.5 -0.622577 2.41689e-05
357 1 0.877063 0.941272 0.5 0.223982 -0.600716
358 1 0.137594 0.466623 0.5 0.139486 -0.164688
359 1 0.350487 0.931954 0.5 0.39009 0.355921
360 1 0.77832 0.566868 0.5 0.118974 0.0873561
361 1 0.725295 0.781167 0.5 -0.544305 -0.333991
362 1 0.24371 0.556964 0.5 -0.180919 -0.403901
363 1 0.137475 0.0710048 0.5 0.0256052 0.553006
364 1 0.903972 0.761673 0.5 -0.149743 -0.208693
365 1 0.34237 0.620623 0.5 0 0
366 1 0.839748 0.290032 0.5 0.241512 -0.323458
367 1 0.252292 0.551324 0.5 0.0647669 0.579039
368 1 0.131833 0.803646 0.5 -0.0500384 0.201035
369 1 0.20696 0.650692 0.5 0.105019 0.186525
370 1 0.713025 0.984279 0.5 -0.719184 -0.599098
371 1 0.954172 0.551607 0.5 0.452261 -0.305783
372 1 0.0575477 0.65279 0.5 0.550664 -0.544975
373 1 0.276686 0.60005 0.5 -0.695273 -0.304419
374 1 0.0451142 0.813699 0.5 -0.7704 -0.436785
375 1 0.0601406 0.721622 0.5 -0.866332 -0.264046
376 1 0.355378 0.332415 0.5 -0.0769777 0.226947
377 1 0.167382 0.170807 0.5 0.234952 -0.144378
378 1 0.185272 0.771557 0.5 0.616533 -0.187903
379 1 0.690662 0.0836279 0.5 0.53047 -0.0871065
380 1 0.451477 0.683401 0.5 -0.0536675 0.146137
381 1 0.324651 0.983193 0.5 0.108828 -0.462223
382 1 0.794761 0.781811 0.5 0.677523 -0.175367
383 1 0.182265 0.939968 0.5 0.240498 -0.076263
384 1 0.741998 0.821406 0.5 0.537976 -0.503477
385 1 0.225779 0.703299 0.5 -0.168074 0.267464
386 1 0.220084 0.792018 0.5 0.646546 0.612361
387 1 0.0505784 0.317579 0.5 0.413141 0.779026
388 1 0.160239 0.324452 0.5 0.310288 -0.29334
389 1 0.804625 0.58939 0.5 0.170919 -0.182631
390 1 0.274522 0.830075 0.5 -0.681772 -0.195568
391 1 0.256806 0.219399 0.5 0.543435 0.357082
392 1 0.38111 0.665532 0.5 0.929049 -0.161229
393 1 0.00353008 0.447478 0.5 0.159155 0.694589
394 1 0.961388 0.562707 0.5 0.386313 -0.236869
395 1 0.210479 0.308671 0.5 -0.368912 0.116086
396 1 0.940719 0.511504 0.5 -0.735689 0.654834
397 1 0.457857 0.328852 0.5 0.302571 0.642207
398 1 0.0306107 0.39926 0.5 -0.260984 -0.127486
399 1 0.976142 0.325059 0.5 -0.106761 0.425383
400 1 0.133059 0.683607 0.5 -0.313996 0.226703
401 1 0.856301 0.336078 0.5 0.451587 -0.0207003
402 1 0.32578 0.668859 0.5 -0.567087 0.366544
403 1 0.201292 0.758851 0.5 0.271736 -0.768355
404 1 0.864147 0.398854 0.5 -0.397987 0.411095
405 1 0.287405 0.673579 0.5 0.451793 0.384002
406 1 0.670116 0.828956 0.5 0.412629 -0.118862
407 1 0.0286765 0.712766 0.5 0.285437 0.686742
408 1 0.0520409 0.965741 0.5 0.608596 -0.131367
409 1 0.0529562 0.787338 0.5 0.0175987 -0.287083
410 1 0.428182 0.381735 0.5 -0.0443635 0.545879
411 1 0.0483572 0.654695 0.5 0.488781 -0.11999
412 1 0.240341 0.4847 0.5 -0.405967 -0.141918
413 1 0.817271 0.0295481 0.5 -0.0863833 0.159003
414 1 0.21994 0.61477 0.5 0.598531 -0.0873336
415 1 0.467668 0.329683 0.5 -0.086412 0.666646
416 1 0.193637 0.142443 0.5 -0.143555 0.27144
417 1 0.171806 0.987589 0.5 -0.159164 0.860215
418 1 0.0691932 0.300759 0.5 -0.118877 0.128794
419 1 0.470525 0.424731 0.5 0.709556 -0.431705
420 1 0.030831 0.37455 0.5 0.299023 0.565208
421 1 0.448228 0.721494 0.5 -0.085237 -0.706335
422 1 0.218051 0.569562 0.5 -0.106616 -0.446837
423 1 0.211916 0.490164 0.5 0.285361 0.336742
424 1 0.879532 0.931682 0.5 -0.0776641 0.191797
425 1 0.124691 0.708831 0.5 0.294784 0.283635
426 1 0.148215 0.519963 0.5 0.530025 0.56116
427 1 0.263424 0.553561 0.5 0.491255 0.361887
428 1 0.369919 0.276225 0.5 0.263524 0.222052
429 1 0.304432 0.716501 0.5 0.210451 0.234634
430 1 0.235637 0.687044 0.5 -0.285738 0.298326
431 1 0.0336134 0.42467 0.5 -0.0914108 -0.274949
432 1 0.874631 0.833307 0.5 0.211349 0.158232
433 1 0.0498008 0.693093 0.5 0.231686 -0.59221
434 1 0.118027 0.0437211 0.5 -0.56484 -0.0942355
435 1 0.0889198 0.223426 0.5 -0.120563 -0.504937
436 1 0.206582 0.695707 0.5 0.251811 0.606059
437 1 0.286815 0.500488 0.5 -0.0357482 0.689216
438 1 0.0318001 0.735742 0.5 -0.320382 -0.530844
439 1 0.51535 0.0229368 0.5 -0.879242 -0.366018
440 1 0.846562 0.164682 0.5 0.663422 0.274671
441 1 0.15978 0.0523205 0.5 0.313911 -0.318141
442 1 0.0510809 0.214315 0.5 0.211737 -0.324223
443 1 0.885862 0.531335 0.5 0.312492 0.365224
444 1 0.631777 0.443667 0.5 0.362631 0.615907
445 1 0.448021 0.590011 0.5 -0.164091 -0.283322
446 1 0.356084 0.630984 0.5 0.271541 0.237084
447 1 0.922663 0.00199758 0.5 0.948244 0.242591
448 1 0.785616 0.861381 0.5 0.175013 -0.00256255
449 1 0.203313 0.934148 0.5 0.6524 -0.619269
450 1 0.254935 0.641007 0.5 0.264954 0.481281
451 1 0.863618 0.698307 0.5 0.210711 -0.178675
452 1 0.970342 0.79621 0.5 0.653126 0.307078
453 1 0.179529 0.619944 0.5 -0.0706119 -0.358814
454 1 0.253979 0.377781 0.5 -0.0243554 0.490933
455 1 0.298726 0.415013 0.5 -0.33488 -0.0819243
456 1 0.131626 0.813388 0.5 -0.466279 0.502679
457 1 0.976042 0.593349 0.5 0.0607231 0.860833
458 1 0.0825706 0.819735 0.5 -0.66185 0.706422
459 1 0.0807132 0.651535 0.5 0.563146 0.00877603
460 1 0.14355 0.422256 0.5 0.568901 0.00686308
461 1 0.167853 0.69082 0.5 -0.0136984 -0.515423
462 1 0.961112 0.794789 0.5 0.554388 0.620297
463 1 0.102743 0.60775 0.5 -0.215642 0.813508
464 1 0.985325 0.865368 0.5 0.241668 -0.180678
465 1 0.194721 0.0206181 0.5 0.0193064 -0.858338
466 1 0.925343 0.44277 0.5 0.609963 -0.0960825
467 1 0.161028 0.749927 0.5 0.474144 -0.105703
468 1 0.21682 0.530756 0.5 -0.00237281 -0.343416
469 1 0.888652 0.236922 0.5 0.0508938 -0.587637
470 1 0.095795 0.495147 0.5 0.282812 -0.906862
471 1 0.0601423 0.385726 0.5 0.242885 0.22671
472 1 0.983731 0.974683 0.5 -0.0861015 0.428584
473 1 0.253525 0.758024 0.5 0.0585508 -0.587691
474 1 0.0073512 0.225336 0.5 0.148074 -0.140706
475 1 0.250706 0.500267 0.5 0.434322 0.62274
476 1 0.855533 0.896748 0.5 -0.302015 0.243899
477 1 0.278247 0.86409 0.5 0.227093 -0.457681
478 1 0.362114 0.409086 0.5 -0.0553891 -0.523255
479 1 0.209227 0.615569 0.5 0.3383 0.0395482
480 1 0.155625 0.77917 0.5 0.206055 0.25964
481 1 0.156187 0.635147 0.5 0.277011 -0.125322
482 1 0.374306 0.339666 0.5 0 0
483 1 0.134111 0.636913 0.5 -0.140021 -0.403337
484 1 0.293358 0.123976 0.5 0.525589 0.634331
485 1 0.887906 0.490506 0.5 0.455477 -0.537252
486 1 0.263972 0.724211 0.5 0.10665 -0.298134
487 1 0.236232 0.132516 0.5 -0.659856 -0.15119
488 1 0.0256577 0.00244817 0.5 0.402252 0.878526
489 1 0.769476 0.846848 0.5 0.967498 0.0865441
490 1 0.361438 0.807433 0.5 0.27446 -0.0978377
491 1 0.195282 0.39118 0.5 -0.212589 -0.374388
492 1 0.959176 0.865381 0.5 0.0920522 -0.204393
493 1 0.0898502 0.922455 0.5 0.0493746 -0.71125
494 1 0.16677 0.417762 0.5 0.00982129 -0.63231
495 1 0.195314 0.466248 0.5 0.099794 0.725334
496 1 0.983529 0.45475 0.5 -0.0466311 0.232403
497 1 0.219328 0.110931 0.5 -0.556064 0.249488
498 1 0.34199 0.898949 0.5 -0.573624 0.733317
499 1 0.319326 0.376375 0.5 0 0
500 1 0.344751 0.649489 0.5 0.736404 0.301818
501 1 0.0338761 0.355112 0.5 0.349004 0.730706
502 1 0.0222527 0.158719 0.5 -0.257754 -0.856949
503 1 0.229411 0.614505 0.5 -0.0460809 -0.515417
504 1 0.212661 0.965383 0.5 -0.387196 0.819996
505 1 0.750269 0.748768 0.5 0.24329 -0.749343
506 1 0.371971 0.640008 0.5 0.263516 -0.461769
507 1 0.210493 0.347977 0.5 0.302945 -0.589934
508 1 0.392923 0.282256 0.5 0.802788 -0.108793
509 1 0.732144 0.512118 0.5 0.233398 -0.173141
510 1 0.217723 0.326943 0.5 0.0343712 -0.740167
511 1 0.545605 0.667376 0.5 0.130229 -0.195137
512 1 0.0728498 0.815083 0.5 -0.390304 0.645167
513 1 0.739521 0.890696 0.5 -0.489216 -0.606426
514 1 0.560848 0.716995 0.5 0.16482 -0.89747
515 1 0.969159 0.0897435 0.5 0.277773 -0.143882
516 1 0.020136 0.24754 0.5 -0.187959 0.383505
517 1 0.372696 0.524477 0.5 -0.469206 0.529682
518 1 0.0695288 0.934642 0.5 0.127259 -0.0592061
519 1 0.198794 0.583843 0.5 0.506405 0.828622
520 1 0.0792824 0.227597 0.5 -0.0234605 -0.796778
521 1 0.319296 0.441057 0.5 -0.391107 0.121648
522 1 0.464858 0.0757195 0.5 -0.141081 -0.299848
523 1 0.996064 0.653918 0.5 -0.698512 0.680714
524 1 0.0779458 0.619985 0.5 0.186497 0.210956
525 1 0.575517 0.309919 0.5 0.363994 0.132288
526 1 0.310594 0.975916 0.5 -0.321586 -0.186464
527 1 0.372383 0.486183 0.5 -0.898035 -0.0473528
528 1 0.287675 0.606905 0.5 0.231622 -0.100166
529 1 0.20009 0.612861 0.5 0.396182 0.781779
530 1 0.0057021 0.252399 0.5 -0.088152 -0.575227
531 1 0.410319 0.660523 0.5 -0.351722 0.78909
532 1 0.147279 0.325639 0.5 0.523259 -0.682094
533 1 0.00224792 0.168419 0.5 -0.354965 0.430537
534 1 0.20157 0.685923 0.5 0.440554 -0.0442632
535 1 0.182525 0.489144 0.5 0.569613 0.0873703
536 1 0.532174 0.891233 0.5 -0.377355 0.499388
537 1 0.971956 0.971442 0.5 -0.64494 -0.0705075
538 1 0.116284 0.26852 0.5 -0.824027 -0.407977
539 1 0.161496 0.64964 0.5 -0.461375 0.23651
540 1 0.129669 0.86549 0.5 0.508668 0.0925017
541 1 0.467397 0.768363 0.5 -0.676226 -0.442213
542 1 0.847856 0.738668 0.5 0 0
543 1 0.372603 0.716002 0.5 -0.555333 -0.180333
544 1 0.0532822 0.943376 0.5 0.273085 -0.0990865
545 1 0.135299 0.758958 0.5 0.0357239 -0.251256
546 1 0.270382 0.544415 0.5 0.637771 0.0164372
547 1 0.408722 0.51787 0.5 -0.242563 -0.786025
548 1 0.825595 0.863118 0.5 -0.483232 -0.0295081
549 1 0.300151 0.319699 0.5 -0.450119 0.116478
550 1 0.839915 0.328974 0.5 0.329582 -0.084231
551 1 0.266208 0.625174 0.5 0.348028 -0.409871
552 1 0.0122803 0.266151 0.5 -0.48716 0.266717
553 1 0.37387 0.736652 0.5 -0.412568 0.58018
554 1 0.0839037 0.399254 0.5 -0.0421076 0.771473
555 1 0.293802 0.878083 0.5 -0.0309882 -0.349562
556 1 0.0772519 0.295466 0.5 -0.322185 0.321072
557 1 0.810087 0.900681 0.5 0.565641 -0.464987
558 1 0.190413 0.593519 0.5 0.292645 0.411901
559 1 0.434618 0.203298 0.5 -0.854649 0.0673688
560 1 0.359225 0.986247 0.5 -0.137695 0.109841
561 1 0.164868 0.561932 0.5 0.176678 -0.25475
562 1 0.652228 0.0430856 0.5 0.506797 0.539993
563 1 0.125708 0.471367 0.5 0.0929752 -0.513626
564 1 0.00100328 0.337537 0.5 -0.150107 0.751084
565 1 0.966074 0.769653 0.5 0.88499 -0.371473
566 1 0.998262 0.785251 0.5 -0.543279 -0.727866
567 1 0.160792 0.0411245 0.5 -0.250518 -0.732529
568 1 0.430362 0.466804 0.5 0 0
569 1 0.680593 0.589736 0.5 -0.411933 0.583732
570 1 0.75217 0.943729 0.5 -0.256223 -0.273886
571 1 0.790319 0.8108 0.5 0.441869 0.386138
572 1 0.503688 0.750436 0.5 -0.253754 0.797121
573 1 0.405554 0.572075 0.5 -0.561057 0.409618
574 1 0.0531039 0.327246 0.5 0.593954 0.365956
575 1 0.321946 0.748008 0.5 -0.45624 0.488204
576 1 0.894686 0.63383 0.5 -0.0471016 -0.281983
577 1 0.265588 0.813042 0.5 -0.581409 0.267986
578 1 0.824848 0.401145 0.5 0.617631 -0.14682
579 1 0.00292727 0.617463 0.5 0.837295 0.238745
580 1 0.427009 0.792842 0.5 0.287088 0.178388
581 1 0.38235 0.720757 0.5 -0.201558 0.020181
582 1 0.934168 0.542309 0.5 0.225539 0.519418
583 1 0.886688 0.329801 0.5 0.193693 -0.670896
584 1 0.115401 0.983792 0.5 0.65014 0.268306
585 1 0.152716 0.480512 0.5 -0.546311 -0.373588
586 1 0.127857 0.129124 0.5 0.453319 0.0244249
587 1 0.0589443 0.855751 0.5 0.666172 -0.244696
588 1 0.891756 0.340732 0.5 -0.0166352 -0.310236
589 1 0.320315 0.93949 0.5 -0.404943 -0.482731
590 1 0.896288 0.534414 0.5 0.714114 0.19265
591 1 0.83985 0.490955 0.5 -0.651749 0.402337
592 1 0.664813 0.786663 0.5 -0.689059 0.459235
593 1 0.25886 0.544219 0.5 0.74726 0.557345
594 1 0.179534 0.741608 0.5 0.192831 -0.223102
595 1 0.399581 0.878843 0.5 -0.232297 0.435531
596 1 0.108014 0.72699 0.5 0.109662 0.515019
597 1 0.178866 0.687179 0.5 0.583925 -0.335044
598 1 0.781772 0.109333 0.5 -0.792753 0.463367
599 1 0.351107 0.123182 0.5 0.410988 -0.222577
600 1 0.128995 0.00835679 0.5 -0.607742 0.226244
601 1 0.828145 0.746482 0.5 0.0447153 -0.963174
602 1 0.555046 0.558261 0.5 0.316914 0.281323
603 1 0.301375 0.371789 0.5 -0.278411 -0.507816
604 1 0.217067 0.46839 0.5 -0.1398 0.8008
605 1 0.184577 0.749997 0.5 0.686002 0.230842
606 1 0.201973 0.798942 0.5 0.328468 0.346784
607 1 0.313873 0.0437968 0.5 -0.672868 -0.37055
608 1 0.224517 0.751157 0.5 -0.126099 0.320931
609 1 0.499324 0.337794 0.5 -0.587672 0.200563
610 1 0.358769 0.499336 0.5 0.204755 -0.545598
611 1 0.283093 0.61574 0.5 0.538337 0.213965
612 1 0.0148438 0.927384 0.5 -0.632515 -0.248194
613 1 0.829683 0.813584 0.5 -0.323889 -0.13218
614 1 0.862772 0.372935 0.5 0.191896 -0.0371616
615 1 0.825985 0.290757 0.5 0.293212 -0.827487
616 1 0.783642 0.0530273 0.5 0.0633662 0.474084
617 1 0.231122 0.662282 0.5 -0.291862 -0.18145
618 1 0.11287 0.974526 0.5 0.26043 0.562014
619 1 0.727922 0.0317141 0.5 0.272864 -0.346654
620 1 0.30203 0.982215 0.5 0.274774 0.299188
621 1 0.0515822 0.616183 0.5 0.287861 -0.116256
622 1 0.451574 0.813168 0.5 0.548676 -0.446058
623 1 0.795399 0.88064 0.5 0.316445 0.635212
624 1 0.862424 0.048758 0.5 -0.54061 -0.40077
625 1 0.919767 0.0864253 0.5 0.16655 0.542914
626 1 0.610064 0.108715 0.5 -0.602774 -0.587448
627 1 0.801088 0.740258 0.5 -0.137974 -0.520828
628 1 0.541217 0.184743 0.5 0.10584 -0.0260828
629 1 0.985566 0.835728 0.5 0.730073 -0.2316
630 1 0.201825 0.59421 0.5 0.804637 0.370284
631 1 0.183681 0.79094 0.5 0.934049 -0.197251
632 1 0.0635974 0.86549 0.5 0.85417 0.093857
633 1 0.456726 0.821561 0.5 0.178816 -0.0568905
634 1 0.291998 0.697416 0.5 0.012956 0.0676522
635 1 0.192261 0.553728 0.5 0.281849 -0.253247
636 1 0.167405 0.781467 0.5 0.73918 0.313447
637 1 0.0757244 0.984585 0.5 -0.0166952 0.368299