ITEM: TIMESTEP
0
ITEM: NUMBER OF ATOMS
10453
ITEM: BOX BOUNDS pp pp pp
-5.8359999999999999e+01 5.8359999999999999e+01
-5.8359999999999999e+01 5.8359999999999999e+01
-5.0000000000000000e-01 5.0000000000000000e-01
ITEM: ATOMS id type xs ys zs c_002[1] c_002[2]
1 1 0.0656797 0.118978 0.5 0.113121 -0.600246
2 1 0.054418 0.135136 0.5 -0.162379 -0.273682
3 1 0.107721 0.047143 0.5 0.0503758 -0.962048
4 1 0.0193686 0.151634 0.5 0.00646638 -0.573577
5 1 0.0545627 0.123957 0.5 -0.10302 -0.371856
6 1 0.0885715 0.154106 0.5 0.606444 -0.672768
7 1 0.0409077 0.18717 0.5 0.0118034 -0.472797
8 1 0.0767351 0.154554 0.5 0.0867178 -0.427177
9 1 0.0896894 0.107943 0.5 0.427683 -0.708615
10 1 0.98334 0.0482737 0.5 0.118417 -0.925686
11 1 0.0147296 0.0419524 0.5 -0.0321609 -0.805732
12 1 0.0264791 0.171068 0.5 -0.101796 -0.906904
13 1 0.0343184 0.0445806 0.5 -0.0567431 -0.451672
14 1 0.109176 0.075863 0.5 0.0439934 -0.900643
15 1 0.0444043 0.0721486 0.5 -0.186836 -0.75002
16 1 0.0280273 0.225924 0.5 0.611332 -0.616846
17 1 0.976878 0.0415713 0.5 0.172332 -0.924963
18 1 0.0845722 0.996956 0.5 0.240222 -0.904797
19 1 0.0145478 0.0972137 0.5 0.194144 -0.679505
20 1 0.994813 0.0191449 0.5 0.539249 -0.687807
21 1 0.114335 0.131713 0.5 -0.0422115 -0.681386
22 1 0.0840657 0.164515 0.5 0.152069 -0.852711
23 1 0.0919363 0.0697168 0.5 0.230858 -0.758573
24 1 0.0289457 0.110676 0.5 -0.00384807 -0.908238
25 1 0.115914 0.0831425 0.5 -0.138461 -0.968039
26 1 0.0315316 0.15209 0.5 -0.105727 -0.664804
27 1 0.0521499 0.0784409 0.5 0.180968 -0.640045
28 1 0.0659573 0.215836 0.5 0.250945 -0.427594
29 1 0.102633 0.22944 0.5 0.207231 -0.624211
30 1 0.0544927 0.00188628 0.5 0.0100205 -0.524877
31 1 0.0639844 0.129702 0.5 -0.37319 -0.33631
32 1 0.0754383 0.118664 0.5 0.465628 -0.393544
33 1 0.0938821 0.191523 0.5 0.491256 -0.449047
34 1 0.0643057 0.140314 0.5 0.09418 -0.00516281
35 1 0.0745986 0.129214 0.5 -0.0315321 -0.669245
36 1 0.105562 0.209192 0.5 0.0775367 -0.303645
37 1 0.0210632 0.021293 0.5 0.0773427 -0.834992
38 1 0.0341808 0.127197 0.5 -0.457294 -0.646707
39 1 0.977337 0.212272 0.5 0.39195 -0.596614
40 1 0.0684385 0.0850399 0.5 0.131124 -0.866008
41 1 0.104497 0.123321 0.5 0.0012042 -0.910946
42 1 0.0826179 0.231645 0.5 -0.272367 -0.847965
43 1 0.107252 0.245733 0.5 -0.161259 -0.810513
44 1 0.0501478 0.0219473 0.5 0.0833482 -0.875843
45 1 0.0285893 0.161567 0.5 -0.0590331 -0.916213
46 1 0.0111743 0.106137 0.5 0.127545 -0.916895
47 1 0.01871 0.163412 0.5 -0.0859019 -0.851437
48 1 0.0940592 0.161787 0.5 0.462096 -0.696876
49 1 0.0621355 0.0108341 0.5 0.198305 -0.853875
50 1 0.986664 0.0757471 0.5 0.427073 -0.842324
51 1 0.966096 0.0794796 0.5 0.31884 -0.924851
52 1 0.000551219 0.158918 0.5 -0.442191 -0.85246
53 1 0.096073 0.022765 0.5 0.265621 -0.787952
54 1 0.0679364 0.0458296 0.5 0.22872 -0.72182
55 1 0.11127 0.170697 0.5 0.0682137 -0.870959
56 1 0.102839 0.265286 0.5 -0.372499 -0.69991
57 1 0.0391655 0.158084 0.5 -0.430417 -0.817864
58 1 0.986831 0.00953041 0.5 0.0660302 -0.744357
59 1 0.0234666 0.0486399 0.5 0.036582 -0.564536
60 1 0.00537848 0.175704 0.5 0.281099 -0.93717
61 1 0.0226701 0.18146 0.5 -0.0261204 -0.794059
62 1 0.0746415 0.101872 0.5 0.247407 -0.688206
63 1 0.0952285 0.219349 0.5 0.0501119 -0.668756
64 1 0.0224867 0.142682 0.5 0.143278 -0.85363
65 1 0.120084 0.0997589 0.5 -0.0582464 -0.752818
66 1 0.0508313 0.211664 0.5 0.44553 -0.647645
67 1 0.018253 0.0861272 0.5 0.37973 -0.748102
68 1 0.0711565 0.176732 0.5 0.301895 -0.583728
69 1 0.0869487 0.0516578 0.5 0.0498929 -0.908556
70 1 0.0195331 0.113266 0.5 -0.153734 -0.937085
71 1 0.0355145 0.205253 0.5 0.165069 -0.805967
72 1 0.969389 0.0984795 0.5 0.142779 -0.962816
73 1 0.0941791 0.125468 0.5 0.106715 -0.770727
74 1 0.998925 0.065104 0.5 0.0553609 -0.897228
75 1 0.0544455 0.173219 0.5 -0.0831242 -0.769872
76 1 0.065474 0.159919 0.5 -0.0291551 -0.743984
77 1 0.078877 0.0440952 0.5 0.398426 -0.729935
78 1 0.0223428 0.103012 0.5 0.0516643 -0.884924
79 1 0.990085 0.123198 0.5 0.218636 -0.708335
80 1 0.102942 0.133553 0.5 -0.00990116 -0.896786
81 1 0.0129314 0.183234 0.5 0.0998963 -0.902297
82 1 0.00946506 0.165241 0.5 -0.0877643 -0.772759
83 1 0.0923709 0.229049 0.5 0.283971 -0.665057
84 1 0.0685916 0.149385 0.5 0.234545 -0.438915
85 1 0.999202 0.0908715 0.5 0.415151 -0.854369
86 1 0.0878156 0.118089 0.5 0.358943 -0.792974
87 1 0.00924943 0.0890472 0.5 0.498886 -0.727695
88 1 0.0381711 0.0541414 0.5 -0.0995282 -0.525984
89 1 0.0910849 0.201531 0.5 0.0916921 -0.743834
90 1 0.985985 0.182099 0.5 -0.2524 -0.821163
91 1 0.0574138 0.0303007 0.5 0.414049 -0.762537
92 1 0.0126831 0.144395 0.5 -0.111479 -0.730557
93 1 0.0933812 0.0326135 0.5 0.0630345 -0.909636
94 1 0.0031696 0.0816548 0.5 0.151323 -0.870105
95 1 0.013686 0.210683 0.5 0.218507 -0.662958
96 1 0.0441086 0.174557 0.5 0.0695796 -0.92368
97 1 0.978107 0.174841 0.5 -0.0271662 -0.88317
98 1 0.00451108 0.0177417 0.5 0.153694 -0.908123
99 1 0.136763 0.143512 0.5 0.492396 -0.661243
100 1 0.11808 0.204457 0.5 -0.0659066 -0.635121
101 1 0.982959 0.113301 0.5 0.511315 -0.687373
102 1 0.993135 0.0455046 0.5 0.402093 -0.534646
103 1 0.12909 0.0695809 0.5 0.515993 -0.733777
104 1 0.0245308 0.23573 0.5 0.351478 -0.756937
105 1 0.995807 0.101158 0.5 0.271395 -0.863356
106 1 0.0458345 0.0974577 0.5 0.313037 -0.471952
107 1 0.9726 0.0866577 0.5 0.388985 -0.779756
108 1 0.0993234 0.182982 0.5 0.477109 -0.408388
109 1 0.0777633 0.98888 0.5 0.406196 -0.827121
110 1 0.0162804 0.173357 0.5 0.322104 -0.911593
111 1 0.0984229 0.050206 0.5 0.212099 -0.742642
112 1 0.016342 0.13553 0.5 0.056757 -0.859036
113 1 0.0405092 0.148251 0.5 -0.286676 -0.681936
114 1 0.0990483 0.238849 0.5 0.226321 -0.663959
115 1 0.0366211 0.117158 0.5 -0.0197928 -0.864165
116 1 0.0508333 0.144695 0.5 0.0697555 -0.881956
117 1 0.991011 0.162456 0.5 0.106062 -0.821436
118 1 0.0702229 0.110632 0.5 0.71758 -0.479833
119 1 0.056442 0.0597706 0.5 0.351943 -0.799388
120 1 0.0635346 0.170083 0.5 -0.21021 -0.94367
121 1 0.981643 0.057495 0.5 0.125173 -0.768679
122 1 0.0678425 0.254302 0.5 0.256107 -0.848267
123 1 0.00833647 0.115816 0.5 -0.269129 -0.597624
124 1 0.0801856 0.109952 0.5 0.678483 -0.595073
125 1 0.987655 0.0376951 0.5 0.230545 -0.73968
126 1 0.0614437 0.984041 0.5 0.6059 -0.572723
127 1 0.0841494 0.0352422 0.5 0.221735 -0.722867
128 1 0.064463 0.00102439 0.5 0.223903 -0.895528
129 1 0.0816453 0.145747 0.5 0.0225878 -0.53922
130 1 0.981815 0.249745 0.5 -0.194849 -0.515411
131 1 0.0316804 0.216416 0.5 0.57993 -0.528788
132 1 0.0450824 0.00522288 0.5 -0.0460814 -0.53826
133 1 0.104186 0.0295045 0.5 0.233253 -0.846485
134 1 0.047617 0.0330774 0.5 0.458646 -0.680592
135 1 0.0478951 0.154 0.5 -0.355466 -0.789592
136 1 0.0384894 0.0909648 0.5 -0.00218263 -0.71852
137 1 0.0151576 0.0136969 0.5 0.101546 -0.853394
138 1 0.0841233 0.258471 0.5 0.213824 -0.905623
139 1 0.00762834 0.0356929 0.5 0.22848 -0.7776
140 1 0.982886 0.192617 0.5 0.0520762 -0.941991
141 1 0.0836685 0.19528 0.5 0.0743404 -0.872602
142 1 0.0900098 0.042544 0.5 0.22389 -0.876548
143 1 0.0744779 0.225436 0.5 -0.24835 -0.788442
144 1 0.0460698 0.0600549 0.5 -0.229598 -0.569108
145 1 0.121689 0.0346755 0.5 0.169782 -0.793423
146 1 0.0475698 0.0870446 0.5 0.102666 -0.661866
147 1 0.027475 0.19875 0.5 -0.155123 -0.84027
148 1 0.0592158 0.190329 0.5 0.307599 -0.717017
149 1 0.999421 0.196394 0.5 -0.0539461 -0.911857
150 1 0.0360907 0.0654086 0.5 -0.0330514 -0.656471
151 1 0.108778 0.0103515 0.5 0.303346 -0.818931
152 1 0.9926 0.113657 0.5 0.215053 -0.505118
153 1 0.0311478 0.187564 0.5 0.148226 -0.703338
154 1 0.10692 0.020149 0.5 0.210792 -0.891636
155 1 0.0563563 0.0972999 0.5 0.318414 -0.528605
156 1 0.0178753 0.124685 0.5 -0.345006 -0.791656
157 1 0.0281603 0.0276926 0.5 -0.0313944 -0.876549
158 1 0.00729059 0.233721 0.5 0.0706558 -0.0903486
159 1 0.989094 0.133032 0.5 0.316943 -0.714117
160 1 0.0109898 0.0248824 0.5 -0.104008 -0.86702
161 1 0.996078 0.0746602 0.5 0.324737 -0.896433
162 1 0.973963 0.0215197 0.5 0.104979 -0.346782
163 1 0.0751923 0.0550892 0.5 -0.0394508 -0.805077
164 1 0.0725216 0.270964 0.5 0.0480798 -0.877667
165 1 0.065972 0.056842 0.5 0.0349431 -0.94571
166 1 0.0132612 0.0777574 0.5 -0.0336052 -0.703811
167 1 0.0615052 0.179512 0.5 -0.100087 -0.950245
168 1 0.00173572 0.0281985 0.5 0.455096 -0.636712
169 1 0.100511 0.142874 0.5 0.198316 -0.934725
170 1 0.0254211 0.0118605 0.5 0.229456 -0.877573
171 1 0.123361 0.0254376 0.5 -0.00525256 -0.932769
172 1 0.0435574 0.135199 0.5 0.122944 -0.729402
173 1 0.0814081 0.071065 0.5 0.290399 -0.719177
174 1 0.0404748 0.0808104 0.5 -0.142669 -0.809542
175 1 0.00235576 0.185143 0.5 -0.0564146 -0.922591
176 1 0.983948 0.153611 0.5 -0.0200773 -0.826604
177 1 0.0697773 0.244782 0.5 0.116954 -0.89242
178 1 0.0383729 0.196238 0.5 0.0842195 -0.924163
179 1 0.110397 0.199347 0.5 0.337111 -0.169371
180 1 0.0845858 0.127215 0.5 0.112259 -0.924332
181 1 0.0937763 0.0976007 0.5 0.246931 -0.664231
182 1 0.0314112 0.0842223 0.5 -0.042983 -0.543455
183 1 0.983577 0.0209321 0.5 0.50564 -0.788986
184 1 0.123902 0.0902245 0.5 -0.0161811 -0.913223
185 1 0.0326027 0.101499 0.5 0.263504 -0.648853
186 1 0.0115091 0.193608 0.5 0.122814 -0.877419
187 1 0.0671288 0.0281737 0.5 0.524034 -0.46846
188 1 0.0850591 0.0624286 0.5 -0.179933 -0.781912
189 1 0.0494313 0.115583 0.5 0.218837 -0.642363
190 1 0.951856 0.226296 0.5 0.425593 -0.824228
191 1 0.995869 0.141921 0.5 0.216298 -0.816657
192 1 0.0710066 0.206978 0.5 0.795968 -0.369096
193 1 0.978744 0.0673432 0.5 0.0500518 -0.872434
194 1 0.0939343 0.135072 0.5 0.102369 -0.713305
195 1 0.992296 0.189218 0.5 -0.203207 -0.914739
196 1 0.0647818 0.198941 0.5 0.697342 -0.598162
197 1 0.0177494 0.0592868 0.5 0.129072 -0.83411
198 1 0.0754803 0.215984 0.5 0.245849 -0.318372
199 1 0.0152442 0.0683874 0.5 -0.137322 -0.91337
200 1 0.143797 0.0857513 0.5 0.211445 -0.785108
201 1 0.0365676 0.0346358 0.5 0.0812633 -0.85222
202 1 0.0807364 0.177336 0.5 0.0162293 -0.384446
203 1 0.0890607 0.182309 0.5 0.147717 -0.270938
204 1 0.0318664 0.0742343 0.5 0.219771 -0.581341
205 1 0.0507504 0.106155 0.5 0.361991 -0.412907
206 1 0.0548272 0.16066 0.5 -0.0568477 -0.548789
207 1 0.00519092 0.138695 0.5 -0.208634 -0.914167
208 1 0.0433649 0.0417302 0.5 0.579146 -0.441676
209 1 0.0715947 0.0744898 0.5 0.063519 -0.891117
210 1 0.0807327 0.206177 0.5 0.367093 -0.638295
211 1 0.0625526 0.0669431 0.5 0.107523 -0.839028
212 1 0.994037 0.216324 0.5 -0.0603405 -0.876981
213 1 0.975976 0.146537 0.5 -0.0178865 -0.797636
214 1 0.97965 0.123691 0.5 0.0702283 -0.728283
215 1 0.0493546 0.191842 0.5 -0.00374004 -0.562655
216 1 0.992763 0.0838235 0.5 0.378344 -0.888332
217 1 0.999486 0.121594 0.5 -0.397919 -0.431247
218 1 0.058235 0.11222 0.5 0.0815883 -0.688997
219 1 0.973974 0.240983 0.5 0.396459 -0.847268
220 1 0.0427899 0.0150773 0.5 -0.264702 -0.961971
221 1 0.979284 0.0954121 0.5 0.35988 -0.857238
222 1 0.0741797 0.197558 0.5 0.547172 -0.730449
223 1 0.0212768 0.191476 0.5 -0.102772 -0.892425
224 1 0.985354 0.142531 0.5 0.210957 -0.679254
225 1 0.0719056 0.0372041 0.5 0.669554 -0.44498
226 1 0.11256 0.225514 0.5 -0.348805 -0.868521
227 1 0.059067 0.0498283 0.5 0.144203 -0.736377
228 1 0.0529968 0.0420383 0.5 0.598118 -0.332984
229 1 0.100237 0.107387 0.5 0.249126 -0.696053
230 1 0.0584482 0.151368 0.5 0.376888 -0.779011
231 1 0.086866 0.0795275 0.5 0.272344 -0.678249
232 1 0.11315 0.093377 0.5 -0.351968 -0.899152
233 1 0.978054 0.133731 0.5 -0.22893 -0.652952
234 1 0.0104933 0.155806 0.5 -0.519304 -0.795944
235 1 0.00774346 0.0617051 0.5 -0.182052 -0.945455
236 1 0.00287588 0.149539 0.5 -0.327756 -0.825345
237 1 0.110618 0.14055 0.5 0.26792 -0.884863
238 1 0.00165793 0.108715 0.5 -0.069685 -0.777059
239 1 0.0775357 0.187747 0.5 0.380654 -0.496241
240 1 0.0910344 0.144291 0.5 0.24871 -0.895112
241 1 0.993296 0.152594 0.5 0.0686138 -0.868837
242 1 0.983458 0.085504 0.5 0.566849 -0.79582
243 1 0.0467723 0.165399 0.5 -0.252885 -0.743182
244 1 0.0257568 0.132189 0.5 -0.537234 -0.574208
245 1 0.103977 0.0970459 0.5 0.0337152 -0.749568
246 1 0.0343378 0.235185 0.5 0.323425 -0.775167
247 1 0.989706 0.0281139 0.5 0.363392 -0.625071
248 1 0.99883 0.168859 0.5 -0.0339742 -0.847004
249 1 0.963344 0.120927 0.5 0.200538 -0.594403
250 1 0.986353 0.103619 0.5 0.427298 -0.801435
251 1 0.019133 0.031004 0.5 -0.176174 -0.786721
252 1 0.998626 0.131314 0.5 -0.198433 -0.768177
253 1 0.0279992 0.0569154 0.5 0.28902 -0.662387
254 1 0.0364471 0.167712 0.5 -0.270223 -0.899724
255 1 0.0604352 0.0211639 0.5 0.20873 -0.837757
256 1 0.0250706 0.0383987 0.5 -0.253629 -0.806051
257 1 0.0405314 0.106819 0.5 0.195357 -0.597303
258 1 0.0407988 0.213212 0.5 0.494961 -0.620828
259 1 0.0267385 0.120388 0.5 -0.438553 -0.797142
260 1 0.0032734 0.0454386 0.5 0.379165 -0.654214
261 1 0.105181 0.0867088 0.5 0.119879 -0.644611
262 1 0.0478034 0.050048 0.5 0.33528 -0.345811
263 1 0.0613895 0.0763543 0.5 0.167711 -0.840371
264 1 0.025138 0.092856 0.5 0.195357 -0.629803
265 1 0.0407921 0.0249972 0.5 0.0214458 -0.828111
266 1 0.989857 0.199035 0.5 -0.0437749 -0.968271
267 1 0.0339966 0.137296 0.5 -0.354294 -0.443965
268 1 0.0184462 0.202059 0.5 0.226643 -0.645455
269 1 0.0265009 0.208461 0.5 0.0858335 -0.526433
270 1 0.0511968 0.182365 0.5 -0.0999147 -0.875979
271 1 0.0772008 0.251693 0.5 -0.0221883 -0.991812
272 1 0.969863 0.12814 0.5 -0.365508 -0.697285
273 1 0.104903 0.0577872 0.5 0.357933 -0.760479
274 1 0.0757881 0.0922855 0.5 -0.340796 -0.904878
275 1 0.0988898 0.0779882 0.5 0.450744 -0.74404
276 1 0.0316567 0.244636 0.5 0.0186137 -0.945881
277 1 0.00441644 0.212813 0.5 -0.110651 -0.917399
278 1 0.082038 0.136295 0.5 -0.257991 -0.663025
279 1 0.0452455 0.124443 0.5 0.217357 -0.725343
280 1 0.0861603 0.0231893 0.5 0.114129 -0.588499
281 1 0.0736986 0.140689 0.5 -0.189113 0.0507571
282 1 0.99468 0.17786 0.5 -0.099737 -0.782975
283 1 0.00801996 0.202572 0.5 0.296108 -0.666087
284 1 0.10087 0.0387951 0.5 0.0604422 -0.871541
285 1 0.0820881 0.00607654 0.5 0.159991 -0.946878
286 1 0.0543031 0.200024 0.5 0.518417 -0.583617
287 1 0.0083634 0.126334 0.5 -0.345085 -0.47563
288 1 0.0348752 0.177543 0.5 -0.0590259 -0.750346
289 1 0.084033 0.222237 0.5 -0.338195 -0.850511
290 1 0.0527603 0.0118151 0.5 0.00645531 -0.853621
291 1 0.0123359 0.220353 0.5 -0.130759 -0.738083
292 1 0.0881711 0.986767 0.5 0.504127 -0.706386
293 1 0.0948991 0.086711 0.5 0.159027 -0.663207
294 1 0.0631885 0.104052 0.5 0.405601 -0.716746
295 1 0.0681073 0.187399 0.5 0.392775 -0.610911
296 1 0.0157977 0.239315 0.5 0.0100872 -0.256941
297 1 0.000952197 0.0546818 0.5 -0.0527667 -0.958962
298 1 0.128486 0.174867 0.5 -0.414672 -0.842485
299 1 0.0225047 0.0754727 0.5 0.351659 -0.850387
300 1 0.997698 0.0369759 0.5 0.783433 -0.521842
301 1 0.0453163 0.203414 0.5 0.364516 -0.75505
302 1 0.0792199 0.0158581 0.5 0.00789446 -0.953942
303 1 0.990266 0.0933728 0.5 0.365028 -0.858543
304 1 0.0320814 0.0185015 0.5 0.0429332 -0.856848
305 1 0.02125 0.216758 0.5 0.239536 -0.52028
306 1 0.00491551 0.0983587 0.5 0.496966 -0.765392
307 1 0.0740829 0.0651211 0.5 -0.101247 -0.870658
308 1 0.980184 0.202061 0.5 0.00112364 -0.964176
309 1 0.0977267 0.116496 0.5 0.205792 -0.924007
310 1 0.0668531 0.0952343 0.5 -0.0765711 -0.872671
311 1 0.0232043 0.985263 0.5 0.350238 -0.614374
312 1 0.0601226 0.207765 0.5 0.445057 -0.595118
313 1 0.0573452 0.0862511 0.5 0.377434 -0.611395
314 1 0.010203 0.0519591 0.5 0.0709455 -0.91977
315 1 0.0530923 0.0686659 0.5 -0.020614 -0.801253
316 1 0.987065 0.210104 0.5 0.0923555 -0.784225
317 1 0.0915512 0.267157 0.5 0.0541423 -0.802997
318 1 0.0436827 0.978172 0.5 0.0932278 -0.841886
319 1 0.00218983 0.241683 0.5 -0.00666539 -0.658096
320 1 0.100834 0.0667283 0.5 0.185022 -0.847971
321 1 0.973041 0.115346 0.5 0.104543 -0.759204
322 1 0.948111 0.235578 0.5 0.40095 -0.720814
323 1 0.00797637 0.456491 0.5 0.00816467 -0.819284
324 1 0.108136 0.430676 0.5 0.467914 -0.83482
325 1 0.978348 0.428363 0.5 -0.176487 -0.864102
326 1 0.976813 0.439643 0.5 0.131858 -0.579362
327 1 0.0783633 0.373594 0.5 0.11627 -0.987278
328 1 0.0177479 0.295162 0.5 -0.138055 -0.922399
329 1 0.09236 0.360415 0.5 0.185093 -0.765189
330 1 0.0575347 0.37938 0.5 0.310899 -0.801393
331 1 0.0115213 0.410179 0.5 -0.309222 -0.949854
332 1 0.0184292 0.257851 0.5 0.0586654 -0.483677
333 1 0.075039 0.450353 0.5 0.0930609 -0.836927
334 1 0.00890062 0.258385 0.5 -0.370692 0.159005
335 1 0.0243529 0.302354 0.5 0.187303 -0.908388
336 1 0.0418297 0.373516 0.5 -0.173388 -0.867509
337 1 0.010475 0.446606 0.5 -0.133185 -0.918742
338 1 0.0577726 0.348397 0.5 0.301199 -0.302925
339 1 0.0298525 0.28207 0.5 0.327698 -0.854935
340 1 0.013655 0.437218 0.5 0.0776949 -0.984426
341 1 0.969287 0.261132 0.5 0.148204 -0.726433
342 1 0.0058884 0.308594 0.5 0.179691 -0.594877
343 1 0.107294 0.282604 0.5 0.151818 -0.864408
344 1 0.0601398 0.366472 0.5 0.126547 -0.775257
345 1 0.104616 0.347623 0.5 0.228019 -0.698023
346 1 0.072708 0.299793 0.5 0.315849 -0.851425
347 1 0.0640381 0.386718 0.5 0.102391 -0.835058
348 1 0.117401 0.307917 0.5 -0.415896 -0.782141
349 1 0.058916 0.312576 0.5 -0.129241 -0.794178
350 1 0.14436 0.347635 0.5 0.529455 -0.672044
351 1 0.0958949 0.442418 0.5 0.0279197 -0.771096
352 1 0.977644 0.465321 0.5 0.0412065 -0.94721
353 1 0.994692 0.404085 0.5 0.602033 -0.685685
354 1 0.0568465 0.323641 0.5 -0.229955 -0.903252
355 1 0.136397 0.339079 0.5 -0.195164 -0.929641
356 1 0.000775441 0.38505 0.5 -0.294134 -0.858143
357 1 0.00137475 0.225016 0.5 0.397838 -0.542361
358 1 0.041838 0.279765 0.5 -0.0209293 -0.760586
359 1 0.985724 0.500682 0.5 0.409231 -0.800068
360 1 0.0768739 0.347339 0.5 0.163537 -0.872401
361 1 0.0817818 0.268508 0.5 0.0744828 -0.938722
362 1 0.0204171 0.272449 0.5 -0.11959 0.0934991
363 1 0.981563 0.417935 0.5 0.156312 -0.898585
364 1 0.09395 0.32256 0.5 0.677246 -0.592764
365 1 0.0254285 0.395511 0.5 0.230519 -0.784451
366 1 0.111268 0.328081 0.5 -0.0779931 -0.884711
367 1 0.994866 0.273897 0.5 0.198686 -0.678216
368 1 0.0645098 0.330102 0.5 -0.00133095 -0.870363
369 1 0.980334 0.35105 0.5 -0.322732 -0.846759
370 1 0.0913485 0.304428 0.5 -0.334042 -0.708773
371 1 0.00165276 0.346322 0.5 0.379725 -0.795837
372 1 0.0984944 0.312634 0.5 0.509743 -0.509739
373 1 0.0368105 0.28865 0.5 0.0598505 -0.781742
374 1 0.00720643 0.363761 0.5 0.303188 -0.591081
375 1 0.086463 0.344636 0.5 0.00318869 -0.824871
376 1 0.999218 0.394675 0.5 0.162138 -0.624253
377 1 0.0535164 0.358972 0.5 -0.0783972 -0.767055
378 1 0.084876 0.380516 0.5 0.0309401 -0.940432
379 1 0.965333 0.281002 0.5 0.428738 -0.664868
380 1 0.0653547 0.292091 0.5 -0.0240802 -0.970997
381 1 0.0476773 0.446485 0.5 0.398611 -0.595347
382 1 0.00176442 0.375543 0.5 0.0151707 -0.428626
383 1 0.0444183 0.269623 0.5 -0.463205 -0.810076
384 1 0.0516797 0.398496 0.5 -0.0643166 -0.928216
385 1 0.029901 0.508551 0.5 0.0210566 -0.713548
386 1 0.991314 0.386824 0.5 -0.202565 -0.876015
387 1 0.990039 0.225995 0.5 0.204153 -0.490424
388 1 0.0319385 0.403556 0.5 0.408163 -0.778004
389 1 0.0384448 0.413182 0.5 -0.0283527 -0.490974
390 1 0.0647362 0.226871 0.5 0.124349 -0.784343
391 1 0.0570595 0.415227 0.5 -0.515288 -0.707965
392 1 0.0714192 0.460364 0.5 -0.176502 -0.922206
393 1 0.0841293 0.353785 0.5 -0.148735 -0.949348
394 1 0.0177815 0.352094 0.5 0.0508542 -0.856151
395 1 0.0381255 0.423144 0.5 -0.129101 -0.602751
396 1 0.00182083 0.280508 0.5 -0.03476 -0.736912
397 1 0.105787 0.37612 0.5 -0.286562 -0.851123
398 1 0.98852 0.424927 0.5 0.0444006 -0.95978
399 1 0.991746 0.481358 0.5 0.130934 -0.943776
400 1 0.000719713 0.265141 0.5 0.0386044 0.141551
401 1 0.962251 0.45033 0.5 0.608882 -0.712296
402 1 0.0240319 0.333456 0.5 0.431572 -0.589605
403 1 0.11888 0.335066 0.5 0.106291 -0.878958
404 1 0.986741 0.331204 0.5 0.080653 -0.918634
405 1 0.0787838 0.506715 0.5 0.226328 -0.925134
406 1 0.94098 0.228472 0.5 0.43538 -0.799137
407 1 0.043947 0.232688 0.5 -0.216702 -0.957726
408 1 0.974871 0.474928 0.5 0.295342 -0.907686
409 1 0.0888046 0.313675 0.5 0.259837 -0.559114
410 1 0.973378 0.344592 0.5 -0.450233 -0.752459
411 1 0.0595396 0.444702 0.5 0.518289 -0.631199
412 1 0.0203891 0.342332 0.5 0.402449 -0.845347
413 1 0.0560135 0.426826 0.5 -0.11803 -0.799298
414 1 0.0995366 0.299605 0.5 0.109233 -0.116786
415 1 0.978582 0.362191 0.5 -0.706226 -0.60368
416 1 0.0363477 0.357429 0.5 -0.330234 -0.860156
417 1 0.00949124 0.24737 0.5 -0.0792248 -0.20512
418 1 0.0241931 0.462173 0.5 0.412266 -0.828609
419 1 0.964561 0.242549 0.5 0.527335 -0.839989
420 1 0.0446145 0.391264 0.5 0.161966 -0.961234
421 1 0.97185 0.250933 0.5 0.21323 -0.795048
422 1 0.974655 0.409067 0.5 -0.237589 -0.757632
423 1 0.112634 0.35699 0.5 0.0106047 -0.646746
424 1 0.93647 0.34331 0.5 -0.132835 -0.911565
425 1 0.0597026 0.245739 0.5 -0.289117 -0.71051
426 1 0.049932 0.31709 0.5 -0.0229769 -0.761467
427 1 0.0512598 0.369859 0.5 -0.164531 -0.790694
428 1 0.0280729 0.350404 0.5 0.0152494 -0.948375
429 1 0.098527 0.34015 0.5 -0.0879973 -0.753039
430 1 0.00794131 0.391123 0.5 0.102215 -0.742783
431 1 0.062974 0.357295 0.5 0.663667 -0.585452
432 1 0.0145348 0.464774 0.5 0.108535 -0.862935
433 1 0.996239 0.327995 0.5 0.408677 -0.679789
434 1 0.0168781 0.363559 0.5 0.012552 -0.560085
435 1 0.0920066 0.453896 0.5 0.170466 -0.952212
436 1 0.0408681 0.467467 0.5 -0.0354525 -0.789681
437 1 0.985553 0.276429 0.5 0.489383 -0.815898
438 1 0.00940677 0.287341 0.5 -0.259803 -0.937215
439 1 0.948006 0.396918 0.5 0.559578 -0.79091
440 1 0.04217 0.437891 0.5 0.193829 -0.550811
441 1 0.0831079 0.296928 0.5 -0.201963 -0.821993
442 1 0.0304999 0.376765 0.5 -0.139024 -0.890752
443 1 0.14005 0.451281 0.5 0.195978 -0.919455
444 1 0.0874896 0.371433 0.5 0.318784 -0.895006
445 1 0.046061 0.428685 0.5 0.0977265 -0.791413
446 1 0.11039 0.4036 0.5 0.100003 -0.174585
447 1 0.0728772 0.235632 0.5 0.0329174 -0.749873
448 1 0.963136 0.384331 0.5 0.0980723 -0.749384
449 1 0.108383 0.366356 0.5 0.10781 -0.590983
450 1 0.97277 0.449297 0.5 0.322906 -0.813083
451 1 0.0415716 0.402591 0.5 0.134519 -0.841585
452 1 0.0586492 0.40597 0.5 -0.136969 -0.803171
453 1 0.0109493 0.344583 0.5 0.205549 -0.967644
454 1 0.0562247 0.481894 0.5 0.0818311 -0.870143
455 1 0.94472 0.406077 0.5 0.374416 -0.80356
456 1 0.948552 0.435665 0.5 0.211097 -0.740638
457 1 0.0855994 0.416021 0.5 0.0876476 -0.54056
458 1 0.038559 0.450107 0.5 0.422065 -0.661156
459 1 0.0196974 0.312934 0.5 0.00595997 -0.462061
460 1 0.986221 0.434226 0.5 -0.203815 -0.693744
461 1 0.992142 0.255724 0.5 -0.545178 -0.507375
462 1 0.0459934 0.221727 0.5 0.213889 -0.607796
463 1 0.996083 0.206374 0.5 -0.19843 -0.85755
464 1 0.019855 0.248435 0.5 0.0385311 -0.229845
465 1 0.97017 0.45889 0.5 0.0858914 -0.834848
466 1 0.0257122 0.359813 0.5 -0.260864 -0.887326
467 1 0.999778 0.290242 0.5 -0.272915 -0.892092
468 1 0.0642431 0.453285 0.5 0.335403 -0.665386
469 1 0.0334031 0.441784 0.5 -0.0246117 -0.445717
470 1 0.032982 0.562308 0.5 0.0971759 -0.971989
471 1 0.0743417 0.261264 0.5 -0.0018473 -0.970908
472 1 0.049217 0.285841 0.5 0.307679 -0.658714
473 1 0.0528554 0.304719 0.5 -0.0649652 -0.88848
474 1 0.000202305 0.422739 0.5 0.154003 -0.787075
475 1 0.995399 0.431726 0.5 0.395851 -0.774111
476 1 0.0756018 0.317019 0.5 -0.0900328 -0.761772
477 1 0.0512642 0.276266 0.5 -0.0713888 -0.947591
478 1 0.00111506 0.317402 0.5 0.674063 -0.442538
479 1 0.0774426 0.410453 0.5 -0.232832 -0.810762
480 1 0.0211014 0.407134 0.5 -0.296535 -0.86886
481 1 0.123466 0.324178 0.5 -0.106833 -0.689429
482 1 0.049105 0.409777 0.5 -0.489973 -0.798535
483 1 0.026694 0.424753 0.5 0.0749005 -0.903016
484 1 0.99125 0.319798 0.5 0.121505 -0.63609
485 1 0.0692559 0.403561 0.5 -0.0157722 -0.866635
486 1 0.992275 0.442757 0.5 -0.0577542 -0.839375
487 1 0.00625133 0.326858 0.5 0.45178 -0.626318
488 1 0.0709721 0.366462 0.5 0.28458 -0.77362
489 1 0.0287782 0.413382 0.5 -0.0635509 -0.738427
490 1 0.0712771 0.339755 0.5 0.50118 -0.550166
491 1 0.115649 0.411768 0.5 0.43863 -0.657113
492 1 0.987241 0.367935 0.5 -0.174885 -0.545687
493 1 0.0691097 0.375796 0.5 0.21175 -0.844315
494 1 0.994442 0.310531 0.5 -0.0396784 -0.905435
495 1 0.0163671 0.428204 0.5 0.0948384 -0.958147
496 1 0.0942725 0.257216 0.5 0.435211 -0.810687
497 1 0.000404771 0.450053 0.5 -0.412568 -0.908722
498 1 0.00243823 0.413145 0.5 -0.0803669 -0.944393
499 1 0.0258549 0.264303 0.5 0.280131 -0.717957
500 1 0.0907021 0.276664 0.5 0.156162 -0.637887
501 1 0.0485477 0.249603 0.5 0.0602982 -0.768127
502 1 0.994706 0.471709 0.5 0.181247 -0.896753
503 1 0.0368853 0.320727 0.5 0.156804 -0.157811
504 1 0.971726 0.222889 0.5 0.687507 -0.627767
505 1 0.0588239 0.28512 0.5 0.317928 -0.769428
506 1 0.959414 0.327653 0.5 -0.113731 -0.378371
507 1 0.0381099 0.347542 0.5 -0.264455 -0.884921
508 1 0.0282773 0.452182 0.5 0.500193 -0.788458
509 1 0.11247 0.420972 0.5 0.624434 -0.703654
510 1 0.0787421 0.277957 0.5 0.260009 -0.886475
511 1 0.97755 0.372052 0.5 -0.10602 -0.62037
512 1 0.0981396 0.461382 0.5 -0.211019 -0.744425
513 1 0.997269 0.355611 0.5 0.227385 -0.500757
514 1 0.0529408 0.437438 0.5 0.458479 -0.649477
515 1 0.114533 0.288807 0.5 0.253775 -0.855404
516 1 0.0338338 0.431995 0.5 -0.127525 -0.699433
517 1 0.0754078 0.384112 0.5 0.0829383 -0.911672
518 1 0.0793709 0.30827 0.5 0.220619 -0.632316
519 1 0.963705 0.412524 0.5 -0.3765 -0.832075
520 1 0.00938392 0.420001 0.5 0.00568273 -0.97172
521 1 0.988989 0.266345 0.5 0.326712 -0.868031
522 1 0.98803 0.463201 0.5 0.129819 -0.921295
523 1 0.069277 0.44254 0.5 0.215983 -0.787219
524 1 0.00229927 0.478479 0.5 0.101866 -0.865294
525 1 0.96415 0.402267 0.5 -0.0555967 -0.644579
526 1 0.00659337 0.430295 0.5 0.377496 -0.852654
527 1 0.0854428 0.285056 0.5 0.179757 -0.705469
528 1 0.963913 0.374785 0.5 0.216536 -0.437701
529 1 0.0628895 0.301206 0.5 0.120458 -0.791247
530 1 0.957387 0.394716 0.5 0.410667 -0.6865
531 1 0.0307525 0.340699 0.5 0.19325 -0.914491
532 1 0.995499 0.234445 0.5 0.389607 -0.512479
533 1 0.0569428 0.220043 0.5 0.104354 -0.777591
534 1 0.135027 0.349511 0.5 0.166458 -0.749229
535 1 0.0850796 0.44681 0.5 -0.0761607 -0.887334
536 1 0.101457 0.451071 0.5 0.294809 -0.803262
537 1 0.147587 0.335925 0.5 0.327669 -0.29444
538 1 0.968074 0.233345 0.5 0.577729 -0.786725
539 1 0.983402 0.405828 0.5 0.088015 -0.659354
540 1 0.0542573 0.265314 0.5 -0.0520714 -0.789061
541 1 0.043695 0.363579 0.5 -0.539868 -0.814039
542 1 0.128019 0.397319 0.5 0.55493 -0.70333
543 1 0.0182093 0.388766 0.5 0.200859 -0.922873
544 1 0.0210367 0.472896 0.5 -0.11272 -0.796623
545 1 0.0534408 0.229567 0.5 -0.087225 -0.907471
546 1 0.0450431 0.296869 0.5 0.0571027 -0.935966
547 1 0.0807391 0.428559 0.5 0.179693 -0.813393
548 1 0.983337 0.380409 0.5 0.143316 -0.785822
549 1 0.098646 0.432807 0.5 -0.00336582 -0.940027
550 1 0.0244194 0.369595 0.5 -0.0608486 -0.884121
551 1 0.971065 0.420101 0.5 0.180971 -0.936692
552 1 0.100087 0.330918 0.5 -0.0126993 -0.796052
553 1 0.109295 0.338743 0.5 0.167176 -0.679608
554 1 0.129187 0.45269 0.5 0.0300241 -0.776375
555 1 0.965543 0.440063 0.5 0.578234 -0.701778
556 1 0.00216178 0.440293 0.5 0.0579386 -0.819214
557 1 0.0266805 0.291306 0.5 -0.108641 -0.903079
558 1 0.033619 0.367239 0.5 -0.158815 -0.915454
559 1 0.114671 0.346229 0.5 0.0101765 -0.681108
560 1 0.0354777 0.299281 0.5 -0.169865 -0.937705
561 1 0.0453519 0.259033 0.5 -0.222967 -0.76346
562 1 0.0490429 0.474039 0.5 0.0431063 -0.897481
563 1 0.0686437 0.309236 0.5 0.349367 -0.755675
564 1 0.98536 0.238806 0.5 0.0512011 -0.89306
565 1 0.0128092 0.371932 0.5 0.18352 -0.763838
566 1 0.0524534 0.503503 0.5 0.320757 -0.796697
567 1 0.997837 0.365667 0.5 0.130275 -0.346918
568 1 0.0342705 0.273136 0.5 0.100459 -0.614585
569 1 0.971202 0.355156 0.5 -0.210282 -0.897451
570 1 0.115171 0.503972 0.5 -0.170824 -0.842732
571 1 0.0885961 0.407008 0.5 0.0560154 -0.943012
572 1 0.0542529 0.294804 0.5 0.135525 -0.624016
573 1 0.954574 0.404641 0.5 -0.00381677 -0.827195
574 1 0.943974 0.312793 0.5 0.0843662 -0.315786
575 1 0.0399667 0.476995 0.5 -0.344371 -0.769878
576 1 0.968881 0.366473 0.5 0.109641 -0.388965
577 1 0.0433984 0.306951 0.5 0.131947 -0.731715
578 1 0.000267612 0.25142 0.5 -0.749088 -0.501026
579 1 0.129027 0.332645 0.5 0.17789 -0.85007
580 1 0.0604493 0.235789 0.5 -0.0688224 -0.531768
581 1 0.0140895 0.333594 0.5 0.416372 -0.629068
582 1 0.00847374 0.353841 0.5 0.168936 -0.876715
583 1 0.98898 0.396752 0.5 0.266454 -0.717278
584 1 0.0288166 0.480584 0.5 -0.35428 -0.911664
585 1 0.0903886 0.334825 0.5 0.150603 -0.562199
586 1 0.0480677 0.380872 0.5 0.362465 -0.866422
587 1 0.0663627 0.319739 0.5 -0.382806 -0.892911
588 1 0.992507 0.245624 0.5 -0.525691 -0.731968
589 1 0.0626741 0.396419 0.5 0.0765962 -0.863455
590 1 0.989043 0.49065 0.5 0.0848588 -0.974407
591 1 0.0373012 0.226001 0.5 0.237266 -0.555673
592 1 0.98228 0.259943 0.5 -0.152802 -0.610507
593 1 0.994108 0.337514 0.5 -0.0282503 -0.885563
594 1 0.054754 0.493616 0.5 -0.0536829 -0.698911
595 1 0.978991 0.268924 0.5 0.152408 -0.905272
596 1 0.053779 0.332986 0.5 0.0399143 -0.877651
597 1 0.959531 0.431311 0.5 0.0566431 -0.709278
598 1 0.103292 0.357716 0.5 0.24073 -0.595545
599 1 0.10502 0.291674 0.5 0.449371 -0.341163
600 1 0.0202777 0.443811 0.5 0.0773985 -0.949074
601 1 0.0347827 0.394013 0.5 0.4401 -0.826622
602 1 0.053906 0.388887 0.5 0.184988 -0.873089
603 1 0.144175 0.496435 0.5 0.166622 -0.890811
604 1 0.134243 0.285037 0.5 0.0219695 -0.930262
605 1 0.0292974 0.386186 0.5 0.0804419 -0.783701
606 1 0.0751698 0.288544 0.5 -0.13449 -0.942188
607 1 0.0489791 0.343757 0.5 -0.165189 -0.667227
608 1 0.0180896 0.228704 0.5 -0.0152397 -0.814738
609 1 0.0119007 0.278037 0.5 -0.264467 -0.377297
610 1 0.0447615 0.458762 0.5 0.174942 -0.696483
611 1 0.0657738 0.480774 0.5 0.163597 -0.847958
612 1 0.996769 0.300354 0.5 -0.167826 -0.954614
613 1 0.0905865 0.426153 0.5 0.196888 -0.703155
614 1 0.0292998 0.253782 0.5 -0.0707623 -0.7293
615 1 0.0194284 0.417384 0.5 -0.237898 -0.906187
616 1 0.0391435 0.251311 0.5 0.199467 -0.929812
617 1 0.0747118 0.35657 0.5 0.301132 -0.839582
618 1 0.982954 0.314804 0.5 0.00263212 -0.75397
619 1 0.0341423 0.459783 0.5 0.560426 -0.768277