# LAMMPS data file written by Ovito 3.7.11
10453 atoms
1 atom types
-58.36 58.36 xlo xhi
-58.36 58.36 ylo yhi
-0.5 0.5 zlo zhi

Atoms  # atomic

1 1 -48.586065624 -43.0731816 0.0
2 1 -49.834934608 -43.02205824 0.0
3 1 -45.95406464 -51.61918656 0.0
4 1 -55.05659056 -40.88036296 0.0
5 1 -49.284074568 -44.05001128 0.0
6 1 -47.897464312 -39.20776536 0.0
7 1 -52.459267088 -34.9920724 0.0
8 1 -49.679568616 -39.71176232 0.0
9 1 -47.104305224 -44.76550488 0.0
10 1 55.95486768 -50.341954616 0.0
11 1 -55.672615376 -52.43575968 0.0
12 1 -54.149489408 -36.77893888 0.0
13 1 -53.631170904 -51.876344064 0.0
14 1 -43.5050456 -49.003853192 0.0
15 1 -52.151966672 -48.988924704 0.0
16 1 -53.111440088 -32.81711192 0.0
17 1 57.48705112 -51.811027552 0.0
18 1 -47.546639008 -57.855541996 0.0
19 1 -54.31582708 -46.47813744 0.0
20 1 -58.179399144 -55.394133128 0.0
21 1 -45.0148188 -41.04353752 0.0
22 1 -48.059798488 -38.06776112 0.0
23 1 -44.65800576 -48.783380784 0.0
24 1 -53.874823904 -44.52856328 0.0
25 1 -43.22830248 -46.9471184 0.0
26 1 -54.256626696 -39.90633456 0.0
27 1 -49.599020144 -47.39684056 0.0
28 1 -49.818582136 -32.25066976 0.0
29 1 -46.58750408 -31.686562 0.0
30 1 -51.847514224 -57.5832832584 0.0
31 1 -50.231245696 -42.00437656 0.0
32 1 -47.662471936 -42.49518416 0.0
33 1 -48.799336408 -35.65877704 0.0
34 1 -50.706704616 -40.95016152 0.0
35 1 -48.206620576 -41.34234072 0.0
36 1 -46.00145296 -33.94964608 0.0
37 1 -54.008281552 -53.96706772 0.0
38 1 -51.512726248 -41.72168072 0.0
39 1 -58.2145703816 -33.67745504 0.0
40 1 -48.342225872 -47.67358368 0.0
41 1 -45.22001256 -44.16031168 0.0
42 1 -50.466296432 -30.01022936 0.0
43 1 -45.09033664 -30.11119216 0.0
44 1 -51.76987208 -54.396235488 0.0
45 1 -55.38755012 -39.65993864 0.0
46 1 -56.060079088 -48.181584136 0.0
47 1 -57.540112032 -40.42165336 0.0
48 1 -49.195355696 -37.70557896 0.0
49 1 -51.056549472 -56.743042824 0.0
50 1 57.06837648 -50.743658168 0.0
51 1 56.39291784 -45.11823272 0.0
52 1 -55.775083864 -38.35862736 0.0
53 1 -46.2602212 -54.88034336 0.0
54 1 -49.391690408 -50.67673092 0.0
55 1 -45.88706736 -38.73423232 0.0
56 1 -47.332084304 -26.31545776 0.0
57 1 -53.5283756 -39.08637656 0.0
58 1 57.50479256 -56.147665776 0.0
59 1 -54.743594208 -51.795282024 0.0
60 1 -56.053986304 -37.24698608 0.0
61 1 -54.555313176 -38.7819708 0.0
62 1 -51.513391552 -44.77939456 0.0
63 1 -45.2867764 -32.20760008 0.0
64 1 -54.795966472 -42.24516992 0.0
65 1 -44.1487564 -43.50422856 0.0
66 1 -51.200967128 -32.00800888 0.0
67 1 -53.654444872 -47.584689728 0.0
68 1 -51.165005696 -35.2879576 0.0
69 1 -47.718719304 -53.302685808 0.0
70 1 -54.713760576 -45.325294 0.0
71 1 -51.949352424 -32.9144564 0.0
72 1 56.095632 -43.98453136 0.0
73 1 -45.39147424 -43.0714308 0.0
74 1 58.17313128 -50.941872072 0.0
75 1 -51.62840744 -37.22305848 0.0
76 1 -50.193661856 -38.65054408 0.0
77 1 -49.089654064 -51.751185208 0.0
78 1 -53.554030656 -45.61791104 0.0
79 1 56.39957088 -41.774088 0.0
80 1 -46.52645952 -42.82013264 0.0
81 1 -53.565154072 -34.74217488 0.0
82 1 -57.2939927384 -37.17520328 0.0
83 1 -46.89360228 -30.5462076 0.0
84 1 -49.010307808 -38.806482 0.0
85 1 -55.441696528 -46.41709288 0.0
86 1 -46.34682744 -43.93504208 0.0
87 1 -55.0506962 -47.524952432 0.0
88 1 -52.51658828 -51.115749856 0.0
89 1 -46.883284232 -34.81419112 0.0
90 1 57.46639168 -34.4755864 0.0
91 1 -50.835096616 -53.625451624 0.0
92 1 -55.857674936 -41.91485232 0.0
93 1 -46.4673992 -53.597917376 0.0
94 1 56.67012784 -46.25391832 0.0
95 1 -57.5241260608 -32.80835792 0.0
96 1 -53.0247288 -36.99837248 0.0
97 1 57.28582584 -37.79148488 0.0
98 1 -56.96601304 -55.36607364 0.0
99 1 -42.55622872 -41.74339064 0.0
100 1 -44.76877304 -34.47255168 0.0
101 1 -56.000085008 -45.02614064 0.0
102 1 -56.769888424 -52.289287752 0.0
103 1 -42.17478776 -50.2520452 0.0
104 1 -53.481174032 -31.42686 0.0
105 1 57.19023216 -44.20816688 0.0
106 1 -52.287268496 -45.8219376 0.0
107 1 57.4910196 -45.35657496 0.0
108 1 -47.968546792 -34.52449208 0.0
109 1 -48.521157632 57.9409752 0.0
110 1 -56.633839592 -39.80478816 0.0
111 1 -48.036898024 -52.09464548 0.0
112 1 -55.683563712 -43.00349976 0.0
113 1 -53.099873136 -40.33703136 0.0
114 1 -46.11245368 -29.62890512 0.0
115 1 -53.029852808 -43.4647772 0.0
116 1 -51.793531224 -40.4808304 0.0
117 1 57.77628328 -39.07388752 0.0
118 1 -49.128393432 -45.35844248 0.0
119 1 -49.9392356 -49.512343872 0.0
120 1 -48.329631784 -36.67377416 0.0
121 1 57.08681824 -47.359455144 0.0
122 1 -52.414645032 -27.2412808 0.0
123 1 -54.28460448 -43.466528 0.0
124 1 -48.216436728 -44.58960784 0.0
125 1 57.76075952 -52.98959608 0.0
126 1 -50.785315536 -58.005538868 0.0
127 1 -48.139705 -55.334524224 0.0
128 1 -50.06050768 -56.004076832 0.0
129 1 -47.368255832 -40.52378336 0.0
130 1 -56.809071328 -31.71725936 0.0
131 1 -52.26476488 -31.7425876 0.0
132 1 -53.106362768 -57.2918042384 0.0
133 1 -45.39696008 -53.877858624 0.0
134 1 -52.06873364 -53.304191496 0.0
135 1 -52.3792672 -39.32005 0.0
136 1 -52.523136272 -47.714400664 0.0
137 1 -55.850601704 -55.767053528 0.0
138 1 -49.021606304 -28.2479908 0.0
139 1 -56.40826652 -53.378063584 0.0
140 1 57.83487672 -35.68387184 0.0
141 1 -47.800096488 -31.35846208 0.0
142 1 -48.530273464 -54.0649958 0.0
143 1 -51.237091968 -30.79213664 0.0
144 1 -50.589762848 -50.397023112 0.0
145 1 -44.10755424 -54.16199012 0.0
146 1 -50.708513776 -47.214512248 0.0
147 1 -54.494653792 -35.45871896 0.0
148 1 -51.555177312 -34.07418632 0.0
149 1 56.912672 -33.4834664 0.0
150 1 -51.749399392 -50.185596504 0.0
151 1 -44.7376088 -56.354913808 0.0
152 1 -57.119371448 -44.79853664 0.0
153 1 -53.352688656 -35.94427416 0.0
154 1 -45.04785056 -55.08174372 0.0
155 1 -49.982877208 -46.31986512 0.0
156 1 -52.28104732 -42.58435824 0.0
157 1 -52.86272144 -54.304598616 0.0
158 1 -54.141832576 -32.4096424 0.0
159 1 56.72965504 -42.95202624 0.0
160 1 -56.09878344 -54.471508216 0.0
161 1 -57.2394506496 -47.948914488 0.0
162 1 56.0676192 -54.686961664 0.0
163 1 -48.25910956 -51.014822072 0.0
164 1 -50.36543868 -26.65581328 0.0
165 1 -48.81621412 -49.715004808 0.0
166 1 -55.502390928 -49.165346984 0.0
167 1 -49.655606 -36.66653752 0.0
168 1 -57.5002183032 -54.282993744 0.0
169 1 -46.17069696 -40.68147208 0.0
170 1 -54.954600624 -54.857279488 0.0
171 1 -43.41668856 -56.60943344 0.0
172 1 -52.670180128 -41.56480904 0.0
173 1 -45.19643512 -50.803407136 0.0
174 1 -51.3935668 -48.125686928 0.0
175 1 -56.406025496 -36.17934824 0.0
176 1 56.84450752 -39.7641696 0.0
177 1 -49.71524992 -29.09351048 0.0
178 1 -54.786418776 -34.36143424 0.0
179 1 -46.52190744 -35.92303112 0.0
180 1 -47.574850232 -43.63974048 0.0
181 1 -46.07837144 -48.338350768 0.0
182 1 -52.979628192 -46.691840088 0.0
183 1 57.14938016 -55.066371696 0.0
184 1 -42.95331016 -44.8916792 0.0
185 1 -51.795247008 -46.826978504 0.0
186 1 -57.4780963616 -35.84622936 0.0
187 1 -49.706309168 -53.766531088 0.0
188 1 -47.213251672 -51.353380104 0.0
189 1 -50.643897584 -44.02935184 0.0
190 1 55.34383848 -32.08247624 0.0
191 1 -56.907641368 -38.45445448 0.0
192 1 -48.213343648 -33.33546544 0.0
193 1 57.54214296 -48.530635296 0.0
194 1 -46.817244056 -41.7384884 0.0
195 1 57.97622464 -32.62183936 0.0
196 1 -48.738793744 -32.38909968 0.0
197 1 -54.104540536 -49.689594864 0.0
198 1 -46.4026196 -32.76727248 0.0
199 1 -57.344851144 -50.016060704 0.0
200 1 -42.3821992 -45.90177408 0.0
201 1 -53.23237368 -53.092683184 0.0
202 1 -47.696495816 -35.62714592 0.0
203 1 -47.161381304 -33.7519224 0.0
204 1 -53.242913496 -48.651720624 0.0
205 1 -51.768214656 -43.71560848 0.0
206 1 -51.423668888 -38.69162952 0.0
207 1 -57.2867992848 -41.56014024 0.0
208 1 -52.341881784 -52.181123328 0.0
209 1 -47.830116872 -48.970237832 0.0
210 1 -47.455772488 -32.4259832 0.0
211 1 -48.94046256 -48.598204504 0.0
212 1 -57.011895672 -33.79195736 0.0
213 1 57.28489208 -40.92191528 0.0
214 1 -57.5678808872 -46.65893672 0.0
215 1 -50.66266616 -33.11965016 0.0
216 1 57.91623056 -46.58458608 0.0
217 1 -57.498046144 -43.67790792 0.0
218 1 -50.22537468 -45.11228 0.0
219 1 -55.711716576 -30.84839568 0.0
220 1 -53.30596564 -56.184234152 0.0
221 1 -58.2538703558 -44.4767396 0.0
222 1 -49.253809072 -34.54771936 0.0
223 1 -56.74856368 -34.90581632 0.0
224 1 58.09247776 -40.16195136 0.0
225 1 -48.892875816 -53.0078044 0.0
226 1 -45.64137176 -31.08417008 0.0
227 1 -50.249430672 -51.569837344 0.0
228 1 -51.149937144 -52.434405728 0.0
229 1 -45.46780912 -46.45841176 0.0
230 1 -50.821627128 -39.88742592 0.0
231 1 -45.51834888 -49.614088696 0.0
232 1 -43.6252672 -45.82555592 0.0
233 1 58.33152032 -41.38050816 0.0
234 1 -56.331336368 -40.91257768 0.0
235 1 -56.243201096 -50.102865368 0.0
236 1 57.52440152 -42.13440264 0.0
237 1 -44.26932816 -40.19404936 0.0
238 1 57.97412368 -43.41820592 0.0
239 1 -49.983740936 -35.54194032 0.0
240 1 -48.512520352 -40.18121016 0.0
241 1 -57.819580564 -39.18617216 0.0
242 1 58.32626792 -47.6016258 0.0
243 1 -52.528073528 -38.17140848 0.0
244 1 -53.649017392 -42.41814896 0.0
245 1 -44.31578272 -46.704877712 0.0
246 1 -53.203940688 -28.19920184 0.0
247 1 57.96642016 -54.305520704 0.0
248 1 -58.19825526 -38.09927552 0.0
249 1 -57.9807335336 -42.54980912 0.0
250 1 -58.0115079288 -45.64195536 0.0
251 1 -55.294676016 -53.510552456 0.0
252 1 -56.843316976 -42.76865912 0.0
253 1 -53.016523384 -49.900064368 0.0
254 1 -54.971291584 -37.60870136 0.0
255 1 -50.293107296 -54.846214432 0.0
256 1 -54.405794856 -52.870401616 0.0
257 1 -52.642097296 -44.52622888 0.0
258 1 -49.458337528 -33.431526 0.0
259 1 -55.190783544 -44.18388912 0.0
260 1 -56.08611932 -51.347905936 0.0
261 1 -45.13293944 -47.524252112 0.0
262 1 -51.402484208 -51.269481768 0.0
263 1 -50.116976816 -48.353139192 0.0
264 1 -54.517040688 -48.52242988 0.0
265 1 -52.467437488 -55.333345352 0.0
266 1 -57.8848188736 -34.8152416 0.0
267 1 -53.80249252 -41.23927696 0.0
268 1 -55.633164016 -35.19189704 0.0
269 1 -52.647408056 -33.8447148 0.0
270 1 -52.099150872 -36.10464744 0.0
271 1 -50.095161848 -27.97591648 0.0
272 1 55.61287808 -42.60665176 0.0
273 1 -44.09786648 -50.933713344 0.0
274 1 -47.629451848 -46.801054992 0.0
275 1 -46.29687128 -50.453784048 0.0
276 1 -55.085000208 -33.24173928 0.0
277 1 -56.307852304 -32.90196736 0.0
278 1 -49.369887112 -40.9681364 0.0
279 1 -51.124713952 -42.8117288 0.0
280 1 -47.360027072 -54.363588904 0.0
281 1 -49.039884656 -42.07032336 0.0
282 1 58.23230832 -36.90499648 0.0
283 1 -55.221200776 -36.30377176 0.0
284 1 -46.713223192 -52.436821832 0.0
285 1 -48.6281782 -57.6834371888 0.0
286 1 -50.31017176 -34.18110184 0.0
287 1 -56.399290752 -43.90516176 0.0
288 1 -53.613674576 -37.97928736 0.0
289 1 -48.98283192 -31.26298512 0.0
290 1 -52.222057032 -56.551330224 0.0
291 1 -55.232335864 -31.98338096 0.0
292 1 -47.20466108 57.8009112 0.0
293 1 -46.6687412 -49.348270568 0.0
294 1 -51.081072344 -45.88753424 0.0
295 1 -50.786657816 -36.43309752 0.0
296 1 -52.593716856 -30.65895912 0.0
297 1 -57.176599264 -51.149260168 0.0
298 1 -45.36567912 -36.66980568 0.0
299 1 -54.989079712 -50.604516256 0.0
300 1 -57.65212238 -53.134107112 0.0
301 1 -53.9774558 -33.55513248 0.0
302 1 -47.863918984 -56.638286624 0.0
303 1 -56.5073618 -47.077482968 0.0
304 1 -53.66593012 -55.099356768 0.0
305 1 -55.898281824 -34.12414248 0.0
306 1 -56.663614864 -45.97670832 0.0
307 1 -47.428833512 -50.24597576 0.0
308 1 56.734674 -35.35939024 0.0
309 1 -44.01943064 -44.6284756 0.0
310 1 -48.078415328 -45.760076 0.0
311 1 -54.81381296 57.5213668 0.0
312 1 -50.163151248 -31.12677288 0.0
313 1 -48.804226976 -46.6156336 0.0
314 1 -53.747132224 -50.742992864 0.0
315 1 -51.05338636 -49.328684952 0.0
316 1 56.5636792 -32.43462048 0.0
317 1 -46.94367516 -27.43818744 0.0
318 1 -51.286371152 56.68938664 0.0
319 1 -54.545076832 -31.08066848 0.0
320 1 -43.96247128 -47.80781168 0.0
321 1 -57.7964676696 -48.927226512 0.0
322 1 57.27823904 -31.51533376 0.0
323 1 -57.19064068 -4.6116072 0.0
324 1 -44.45491296 -6.69237464 0.0
325 1 56.22367384 -4.9098268 0.0
326 1 57.83662752 -6.28992408 0.0
327 1 -47.949906608 -13.85069552 0.0
328 1 -54.429442328 -18.31546896 0.0
329 1 -46.34916184 -15.08967832 0.0
330 1 -50.4758558 -12.8006824 0.0
331 1 -55.765104304 -9.33748328 0.0
332 1 57.51599768 -23.86935672 0.0
333 1 -48.452421224 -4.86395584 0.0
334 1 -57.041846024 -27.4881436 0.0
335 1 -53.883542888 -20.73425752 0.0
336 1 -53.6159156 -13.22624352 0.0
337 1 -56.064187632 -4.8421292 0.0
338 1 -50.923033464 -16.2159096 0.0
339 1 -54.196469208 -22.9063 0.0
340 1 -55.654535448 -6.1587308 0.0
341 1 55.86417624 -30.03369008 0.0
342 1 -56.962418064 -18.04409496 0.0
343 1 -48.936739192 -24.93652768 0.0
344 1 -50.069296696 -15.28238304 0.0
345 1 -43.73124896 -18.40686072 0.0
346 1 -44.61283512 -19.11021544 0.0
347 1 -49.581815616 -11.9486264 0.0
348 1 -46.2625556 -22.0723356 0.0
349 1 -52.483976712 -24.10828256 0.0
350 1 -40.61657576 -16.60447048 0.0
351 1 -46.145252 -5.29220152 0.0
352 1 57.43487728 -5.1572732 0.0
353 1 -57.90768082 -9.78066912 0.0
354 1 -50.332885472 -18.61578952 0.0
355 1 -42.63758256 -18.47000624 0.0
356 1 58.033184 -10.58627056 0.0
357 1 -58.1318369112 -31.56669056 0.0
358 1 -53.605842664 -24.0069696 0.0
359 1 -57.887710028 0.94496512 0.0
360 1 -48.632543528 -16.57260592 0.0
361 1 -48.507524736 -25.95129136 0.0
362 1 -55.29557476 -22.80918896 0.0
363 1 57.23808736 -8.3793288 0.0
364 1 -45.26039768 -21.15351576 0.0
365 1 -54.383011112 -10.97646552 0.0
366 1 -46.67095888 -20.77184136 0.0
367 1 -57.5438447376 -26.27122088 0.0
368 1 -49.414240712 -19.29124816 0.0
369 1 58.0285152 -15.010192 0.0
370 1 -49.357082928 -23.7198384 0.0
371 1 57.54599472 -17.46446344 0.0
372 1 -46.931699688 -22.99045512 0.0
373 1 -51.779816624 -23.17032064 0.0
374 1 -56.014114752 -12.61206288 0.0
375 1 -46.1866876 -16.29189432 0.0
376 1 -57.078869608 -12.19794032 0.0
377 1 -51.202647896 -15.12434416 0.0
378 1 -47.263861464 -12.5450656 0.0
379 1 56.53648344 -24.73016672 0.0
380 1 -48.44486944 -29.20007584 0.0
381 1 -50.433217984 -5.39783312 0.0
382 1 -55.274891976 -11.76292488 0.0
383 1 -50.119719736 -24.61356344 0.0
384 1 -52.362366144 -10.28723392 0.0
385 1 -54.390212736 0.078786 0.0
386 1 57.385388 -11.58352624 0.0
387 1 -57.4495466496 -29.56354192 0.0
388 1 -53.81568188 -8.75656784 0.0
389 1 -52.708581008 -9.1059108 0.0
390 1 -53.678465848 -30.36727584 0.0
391 1 -50.697063544 -8.40127216 0.0
392 1 -48.741466632 -3.36363696 0.0
393 1 -47.501141552 -16.0560032 0.0
394 1 -55.157646736 -16.04117976 0.0
395 1 -53.009345104 -7.79526192 0.0
396 1 -57.357416052 -23.128068 0.0
397 1 -45.72786128 -14.16724016 0.0
398 1 58.11733912 -7.65356384 0.0
399 1 -57.5655955096 -3.53871696 0.0
400 1 58.22075304 -23.00177696 0.0
401 1 55.9345584 -3.8249144 0.0
402 1 -54.668449872 -21.6200456 0.0
403 1 -45.09582248 -16.483782 0.0
404 1 56.15294152 -17.24806456 0.0
405 1 -48.250518968 1.7006104 0.0
406 1 56.98538856 -30.4131468 0.0
407 1 -51.805249912 -29.83328184 0.0
408 1 55.30321992 -1.31590128 0.0
409 1 -48.6127128 -21.663232 0.0
410 1 56.9996284 -16.45448528 0.0
411 1 -50.047866904 -6.495468 0.0
412 1 -56.010998328 -16.79740864 0.0
413 1 -50.865105328 -7.28636272 0.0
414 1 -48.14892588 -19.67443992 0.0
415 1 56.90636912 -15.1053188 0.0
416 1 -53.263526248 -15.57896856 0.0
417 1 -56.075357736 -26.5999044 0.0
418 1 -54.935166744 -1.91525848 0.0
419 1 58.14546864 -29.174164 0.0
420 1 -50.7326398 -11.63068112 0.0
421 1 55.47654912 -28.93302048 0.0
422 1 55.24427632 -9.02607432 0.0
423 1 -43.8878872 -16.6915436 0.0
424 1 54.24223512 -16.07923048 0.0
425 1 -54.018319472 -25.92736376 0.0
426 1 -51.33806644 -18.10525624 0.0
427 1 -53.347891464 -14.45378776 0.0
428 1 -52.838875544 -16.73251232 0.0
429 1 -45.8458652 -18.73717832 0.0
430 1 -57.3994154096 -10.91051872 0.0
431 1 -50.131134952 -14.06569376 0.0
432 1 -55.524159208 -2.8619744 0.0
433 1 57.78025176 -18.64905472 0.0
434 1 -57.5879648976 -15.21048352 0.0
435 1 -46.52249104 -4.21277496 0.0
436 1 -52.008109272 -3.55319024 0.0
437 1 55.46616104 -24.4195748 0.0
438 1 -56.927647176 -20.98380488 0.0
439 1 56.07427224 -11.28834136 0.0
440 1 -53.636236552 -5.49879592 0.0
441 1 -48.212993488 -24.01502328 0.0
442 1 -51.627683776 -12.53537784 0.0
443 1 -40.73096136 -4.46372296 0.0
444 1 -46.860663896 -14.02344112 0.0
445 1 -52.273658944 -6.97612096 0.0
446 1 -44.78768168 -9.86832584 0.0
447 1 -53.74915148 -27.12677848 0.0
448 1 56.5928592 -13.71821832 0.0
449 1 -44.36095336 -14.30730416 0.0
450 1 56.49248 -1.70971456 0.0
451 1 -51.271606072 -10.51857296 0.0
452 1 -50.404434832 -9.59368368 0.0
453 1 -55.816811264 -18.13898832 0.0
454 1 -51.629306184 -1.58143928 0.0
455 1 54.88687968 -11.0031944 0.0
456 1 55.41737208 -5.75044424 0.0
457 1 -47.630117152 -7.0137048 0.0
458 1 -51.421182752 -4.92488368 0.0
459 1 -56.476582736 -19.05360624 0.0
460 1 -58.2990520842 -4.37151416 0.0
461 1 -55.953361992 -27.8067892 0.0
462 1 -52.884302968 -29.52339024 0.0
463 1 58.28961784 -30.25487448 0.0
464 1 -54.366635296 -24.82541024 0.0
465 1 54.88512888 -3.38488 0.0
466 1 -55.445244816 -14.82414032 0.0
467 1 57.70823552 -21.76582888 0.0
468 1 -49.465142304 -4.38295272 0.0
469 1 -53.966729232 -4.39870992 0.0
470 1 -50.779234424 6.88461248 0.0
471 1 -49.334987832 -22.5573072 0.0
472 1 -52.897363936 -26.21612904 0.0
473 1 -52.155036408 -28.5567152 0.0
474 1 -57.357766212 -7.80494968 0.0
475 1 -57.8271078368 -6.778514 0.0
476 1 -49.863916184 -21.26568368 0.0
477 1 -54.56642492 -27.893162 0.0
478 1 -51.866072704 -20.24426696 0.0
479 1 -48.36328216 -9.16322032 0.0
480 1 -54.68343672 -9.58994864 0.0
481 1 -43.57145928 -19.5004104 0.0
482 1 -51.476706456 -9.27877312 0.0
483 1 -53.366741744 -6.743498 0.0
484 1 -56.198532352 -20.1417868 0.0
485 1 -49.283596016 -9.859922 0.0
486 1 -57.97622464 -5.43436648 0.0
487 1 -55.312487488 -19.30922304 0.0
488 1 -49.01866496 -14.2159124 0.0
489 1 -54.22210092 -7.66885416 0.0
490 1 -52.107157864 -15.85687888 0.0
491 1 -43.68316032 -10.14611944 0.0
492 1 57.54342688 -12.772086 0.0
493 1 -49.210424248 -13.07684192 0.0
494 1 -54.156877784 -19.5225872 0.0
495 1 -55.351997208 -7.35942944 0.0
496 1 -48.190968424 -27.13599936 0.0
497 1 -56.37651868 -3.74227664 0.0
498 1 -57.090588296 -9.0183708 0.0
499 1 -56.94471164 -24.32900008 0.0
500 1 -51.019164056 -29.04133664 0.0
501 1 -56.6643502 -28.65055808 0.0
502 1 55.53677664 -2.5048112 0.0
503 1 -53.542078528 -21.8756624 0.0
504 1 56.18107104 -31.16027152 0.0
505 1 -51.926930512 -25.28773816 0.0
506 1 58.04882448 -19.77248472 0.0
507 1 -52.220096136 -14.7236444 0.0
508 1 -54.424108224 -2.95383304 0.0
509 1 -43.86465992 -8.8199468 0.0
510 1 -51.239344664 -27.89456264 0.0
511 1 -57.8206345456 -14.11483288 0.0
512 1 -45.7215584 -3.1549416 0.0
513 1 58.14850336 -16.2071556 0.0
514 1 -51.271162536 -6.23319816 0.0
515 1 -44.42748376 -23.49118392 0.0
516 1 -52.494948392 -5.88000344 0.0
517 1 -48.392006952 -12.11775368 0.0
518 1 -46.7545304 -19.588534 0.0
519 1 56.04450864 -8.1132072 0.0
520 1 -56.256927368 -8.19852952 0.0
521 1 57.62443056 -24.96722504 0.0
522 1 57.9298868 -3.30761136 0.0
523 1 -49.259411632 -5.68578136 0.0
524 1 -58.0414921296 -2.36486392 0.0
525 1 54.46003464 -9.93882472 0.0
526 1 -56.538420992 -7.02199192 0.0
527 1 -47.092574864 -24.10991664 0.0
528 1 56.29685728 -12.53012544 0.0
529 1 -47.798812568 -20.8922964 0.0
530 1 54.93099984 -12.09207528 0.0
531 1 -53.124150896 -19.80364896 0.0
532 1 -56.638134888 -25.66054184 0.0
533 1 -49.389986296 -30.14854256 0.0
534 1 -41.81540688 -17.64783056 0.0
535 1 -47.267596504 -5.12038968 0.0
536 1 -45.39789384 -4.41925264 0.0
537 1 -44.42386544 -20.39588624 0.0
538 1 55.05530664 -31.00993616 0.0
539 1 56.38171272 -9.32382704 0.0
540 1 -50.792855648 -25.51277432 0.0
541 1 -52.416629272 -13.53613512 0.0
542 1 -42.9331176 -8.10818824 0.0
543 1 -53.86091088 -12.01912528 0.0
544 1 -53.963939624 -0.96492424 0.0
545 1 -49.596697416 -25.83048616 0.0
546 1 -52.957649816 -22.98030048 0.0
547 1 -46.47626992 -7.32756488 0.0
548 1 57.50455912 -9.57489176 0.0
549 1 -45.72179184 -6.37734736 0.0
550 1 -54.512418576 -13.88687872 0.0
551 1 54.53018336 -6.65304 0.0
552 1 -45.76684576 -20.03708896 0.0
553 1 -45.86407352 -17.54406648 0.0
554 1 -42.03507392 -4.02123744 0.0
555 1 56.60324728 -2.89710712 0.0
556 1 -56.963456872 -5.891442 0.0
557 1 -50.261697944 -20.01888064 0.0
558 1 -54.410697096 -15.20593144 0.0
559 1 -44.72103456 -17.6527328 0.0
560 1 -51.230847448 -24.40019928 0.0
561 1 -53.290418536 -25.08709648 0.0
562 1 -52.372987664 -2.4697952 0.0
563 1 -48.9544106 -20.51248952 0.0
564 1 57.00207952 -29.04192024 0.0
565 1 -55.658317176 -13.68296888 0.0
566 1 -52.251843976 0.53072584 0.0
567 1 -56.828213408 -13.35556928 0.0
568 1 -55.138154496 -23.9550292 0.0
569 1 55.79180984 -15.9416176 0.0
570 1 -43.94671408 1.58120584 0.0
571 1 -47.22152712 -9.25636288 0.0
572 1 -51.000582232 -22.305192 0.0
573 1 55.70088496 -6.89850216 0.0
574 1 55.86079136 -19.2815604 0.0
575 1 -52.713973472 -1.38826768 0.0
576 1 54.92679792 -15.19414272 0.0
577 1 -51.178965408 -19.35894576 0.0
578 1 57.58743032 -28.08831784 0.0
579 1 -42.81476352 -17.11278608 0.0
580 1 -51.496070304 -26.59721984 0.0
581 1 -54.880191624 -17.30163904 0.0
582 1 -56.675473616 -14.55019848 0.0
583 1 56.79280056 -10.43908664 0.0
584 1 -53.122866976 -0.21371432 0.0
585 1 -48.039862712 -17.60464416 0.0
586 1 -51.380972712 -13.93146576 0.0
587 1 -48.513710896 -18.60936992 0.0
588 1 -57.2917272032 -30.71008248 0.0
589 1 -49.967913704 -10.78189328 0.0
590 1 -57.11879952 -1.40752648 0.0
591 1 -54.150563232 -28.92578384 0.0
592 1 58.05991288 -26.0413992 0.0
593 1 -56.422518032 -15.74541128 0.0
594 1 -51.114606 0.23133904 0.0
595 1 56.340744 -28.13757368 0.0
596 1 -52.283124936 -19.00773528 0.0
597 1 56.65402048 -6.05916864 0.0
598 1 -43.99888792 -15.52632784 0.0
599 1 -48.26704652 -22.91260288 0.0
600 1 -54.821119632 -5.13824784 0.0
601 1 -53.468124736 -10.08028936 0.0
602 1 -52.014809 -11.33094416 0.0
603 1 -40.72757648 1.8768576 0.0
604 1 -42.0606356 -23.91732864 0.0
605 1 -53.145335576 -11.16345096 0.0
606 1 -50.373107184 -23.24863976 0.0
607 1 -51.735136208 -17.0113564 0.0
608 1 -55.50286948 -28.8572692 0.0
609 1 -56.18451428 -23.52001376 0.0
610 1 -53.213301632 -3.42783296 0.0
611 1 -49.536516584 -1.13591904 0.0
612 1 -58.0856274632 -24.0402348 0.0
613 1 -45.264016 -7.45595688 0.0
614 1 -56.264665904 -29.75811416 0.0
615 1 -54.99362012 -8.4657016 0.0
616 1 -58.11815616 -27.19447608 0.0
617 1 -48.673360512 -15.32988808 0.0
618 1 -55.807438648 -21.32952952 0.0
619 1 -52.615029928 -4.7481696 0.0
620 1 56.94033464 -25.88662848 0.0
621 1 -49.292244968 -26.98251256 0.0
622 1 -49.800257096 -16.38071824 0.0
623 1 -58.1510665312 -11.79735728 0.0
624 1 -56.574557504 -10.09779736 0.0
625 1 -53.363076736 -18.68838936 0.0
626 1 -58.152232564 -8.68758632 0.0
627 1 -54.738155056 -12.77990624 0.0
628 1 -52.750145 -12.20260912 0.0
629 1 -49.988619832 -3.07405464 0.0
630 1 -48.872041296 -6.77956448 0.0
631 1 -44.88140784 -5.64948144 0.0
632 1 -47.935456672 -10.27871336 0.0
633 1 -55.065449608 -20.4540128 0.0
634 1 -50.452126624 -17.36303376 0.0
635 1 -47.878975864 -2.58219656 0.0
636 1 -51.859991592 -8.11040592 0.0
637 1 -57.988182604 -13.01883208 0.0
638 1 -54.076971272 -16.38421984 0.0
639 1 -50.383903784 -1.94899056 0.0
640 1 -52.700807456 -20.9360664 0.0
641 1 -47.499075608 -21.9976348 0.0
642 1 55.61964784 -10.16035928 0.0
643 1 -54.792791688 -29.8844052 0.0
644 1 -46.965081608 -17.3317528 0.0
645 1 -45.22876656 -12.18066576 0.0
646 1 -57.9015110008 -28.30495016 0.0
647 1 -47.490788488 -0.52722424 0.0
648 1 -56.535246208 -22.37358992 0.0
649 1 -55.561964816 -10.53327968 0.0
650 1 -57.903578112 -22.0373196 0.0
651 1 -46.921825176 -18.48051104 0.0
652 1 -51.025455264 -21.16763888 0.0
653 1 -52.093875128 -21.9381076 0.0
654 1 -57.3153396592 -16.54926192 0.0
655 1 -49.498547568 -17.92632448 0.0
656 1 -46.839549248 -6.16013144 0.0
657 1 -52.571306616 -17.87053232 0.0
658 1 -55.245175064 -4.0128336 0.0
659 1 -55.163821224 -25.6515544 0.0
660 1 -51.921129528 -0.53294352 0.0
661 1 -55.887847056 -24.82961216 0.0
662 1 -54.562503128 -6.50749016 0.0
663 1 56.89668136 -7.14349744 0.0
664 1 -54.871145824 -26.7691484 0.0
665 1 54.365258 -2.18009616 0.0
666 1 -44.60163 -3.46693416 0.0
667 1 -47.636851896 -14.94611272 0.0
668 1 -50.63873856 -0.7925288 0.0
669 1 54.77914712 11.8254868 0.0
670 1 57.08810216 -4.02147088 0.0
671 1 -55.52586332 19.82944408 0.0
672 1 57.58427888 -2.19655368 0.0
673 1 -46.1966088 5.73118544 0.0
674 1 -47.046412104 8.98884064 0.0
675 1 -50.671560224 14.16362184 0.0
676 1 -54.692330784 12.86861344 0.0
677 1 -44.87347088 12.5800816 0.0
678 1 -53.597508856 8.33018968 0.0
679 1 -44.15179112 28.7808176 0.0
680 1 -51.871675264 10.1622268 0.0
681 1 -54.806296192 5.48210496 0.0
682 1 -52.650606184 13.80809272 0.0
683 1 -46.63127408 15.67129408 0.0
684 1 -56.047485 -1.63653112 0.0
685 1 -57.104816464 18.08704792 0.0
686 1 -54.573533168 20.55719328 0.0
687 1 -50.695966376 2.26039952 0.0
688 1 -51.12283476 20.02821824 0.0
689 1 -50.61644504 28.15368104 0.0
690 1 57.98684616 19.19121912 0.0
691 1 57.84946672 11.9387052 0.0
692 1 -56.252281912 2.66635168 0.0
693 1 -49.959288096 7.63010312 0.0
694 1 -53.909221288 21.45477008 0.0
695 1 -54.716713592 1.3183524 0.0
696 1 -50.617635584 24.94796624 0.0
697 1 -48.8592838 11.59298056 0.0
698 1 -57.5431140704 4.08438296 0.0
699 1 -55.072873 15.3189164 0.0
700 1 -56.82052156 23.2074376 0.0
701 1 -48.037680048 17.06784888 0.0
702 1 58.1288944 10.86172976 0.0
703 1 -57.5097426552 7.210378 0.0
704 1 -57.6527853496 11.73106032 0.0
705 1 -51.464030664 1.28847208 0.0
706 1 -54.180478568 10.61183224 0.0
707 1 -57.091813856 9.39922816 0.0
708 1 -50.857833672 29.29648656 0.0
709 1 57.04409872 18.43499024 0.0
710 1 -51.701042296 24.03159752 0.0
711 1 -49.997117048 16.28687536 0.0
712 1 -56.032264712 20.89964976 0.0
713 1 -54.831239256 17.67245848 0.0
714 1 57.073162 3.47312032 0.0
715 1 -53.319703584 22.41070688 0.0
716 1 -53.914146872 15.06108192 0.0
717 1 -47.197062608 21.08441752 0.0
718 1 -58.1634213432 13.983056 0.0
719 1 55.33391728 6.11834568 0.0
720 1 57.72072456 20.37382616 0.0
721 1 -53.745229688 13.857582 0.0
722 1 -52.94436708 19.07426568 0.0
723 1 -50.689056552 10.13059568 0.0
724 1 -51.805903544 5.66593896 0.0
725 1 -56.619949912 16.63575144 0.0
726 1 -55.02396732 2.4137696 0.0
727 1 -50.216830776 23.88954928 0.0
728 1 -53.17051208 16.01561808 0.0
729 1 -49.41037728 21.63090056 0.0
730 1 -51.74244288 28.35922496 0.0
731 1 -53.825789832 9.41802008 0.0
732 1 -55.992825024 17.8073868 0.0
733 1 -58.3306166738 21.34657064 0.0
734 1 55.72866432 15.65133496 0.0
735 1 -57.4896738184 19.16180568 0.0
736 1 -52.540492536 18.04444512 0.0
737 1 -47.323552072 5.88513912 0.0
738 1 -52.59058876 4.85286744 0.0
739 1 -44.67306264 23.68809056 0.0
740 1 -50.801294504 22.02728168 0.0
741 1 -57.8927383256 5.23944408 0.0
742 1 56.81859568 0.34700856 0.0
743 1 -55.893951512 14.57517656 0.0
744 1 55.856356 18.83242184 0.0
745 1 -51.273356872 4.62176184 0.0
746 1 -46.06063 17.472984 0.0
747 1 -47.726679608 15.83797024 0.0
748 1 -55.336321712 9.70573488 0.0
749 1 -53.59992496 17.28459792 0.0
750 1 57.40254584 14.17144208 0.0
751 1 57.6736864 23.6848224 0.0
752 1 -55.630281032 13.44567712 0.0
753 1 58.09551248 0.12524056 0.0
754 1 57.6678504 1.23968312 0.0
755 1 -47.840866784 23.26556416 0.0
756 1 58.01019016 25.76080432 0.0
757 1 -56.62268116 11.39840832 0.0
758 1 55.053906 2.9086624 0.0
759 1 -53.593843848 -2.165156 0.0
760 1 -51.571471424 13.43517232 0.0
761 1 56.93321472 15.4000368 0.0
762 1 -54.139334768 19.53099104 0.0
763 1 -49.60389904 18.72212144 0.0
764 1 -49.2403746 -2.21721312 0.0
765 1 -56.623428168 12.67194024 0.0
766 1 -48.688499096 14.76811472 0.0
767 1 -48.872834992 7.33970376 0.0
768 1 56.13379944 17.67852792 0.0
769 1 -51.470461936 9.13485736 0.0
770 1 56.45267848 9.0796488 0.0
771 1 -43.84715192 13.5727852 0.0
772 1 -51.259758992 16.78130128 0.0
773 1 -53.516726944 12.7405716 0.0
774 1 -56.744058288 4.94437592 0.0
775 1 -56.494382536 25.21105312 0.0
776 1 54.71401736 -0.35261112 0.0
777 1 -56.467140088 22.10186576 0.0
778 1 57.34500288 9.99379984 0.0
779 1 -56.295141496 6.93281784 0.0
780 1 -48.39672244 13.68226856 0.0
781 1 -51.00179612 23.11732976 0.0
782 1 -48.023241784 27.726836 0.0
783 1 58.04859104 4.4394452 0.0
784 1 -47.691488528 2.86034032 0.0
785 1 -49.538384104 6.39718976 0.0
786 1 -45.5680716 22.77662408 0.0
787 1 -50.333970968 5.5943896 0.0
788 1 -47.512008184 14.715474 0.0
789 1 -50.9535324 3.46051456 0.0
790 1 -54.403752256 22.72234928 0.0
791 1 -46.41931056 6.831038 0.0
792 1 -53.5558048 23.5068244 0.0
793 1 -53.830295224 18.35095184 0.0
794 1 -49.898547008 19.79863 0.0
795 1 -46.34402616 14.37430144 0.0
796 1 -51.253981352 12.2742752 0.0
797 1 -47.069475976 -1.70889752 0.0
798 1 -47.669486808 20.06778632 0.0
799 1 -57.160258464 21.1969356 0.0
800 1 -49.560467528 9.4975064 0.0
801 1 55.02029064 10.58627056 0.0
802 1 -56.333554048 18.98707584 0.0
803 1 -55.211851504 21.76582888 0.0
804 1 -51.997114248 15.85396088 0.0
805 1 56.84474096 19.69089744 0.0
806 1 -51.139747488 11.1794416 0.0
807 1 -53.447045104 11.42677128 0.0
808 1 57.69539632 5.49762872 0.0
809 1 -55.20645904 6.66891392 0.0
810 1 -48.135841568 4.98090928 0.0
811 1 -45.78201936 16.3623932 0.0
812 1 58.0075056 7.61598 0.0
813 1 -48.8038418 4.07154376 0.0
814 1 -52.430834096 23.16915344 0.0
815 1 -47.13235304 17.9060152 0.0
816 1 58.3635016 -1.08187768 0.0
817 1 -46.31064424 18.65699168 0.0
818 1 -45.36007656 14.92335232 0.0
819 1 -51.967619104 6.9220796 0.0
820 1 -55.820616336 1.58202288 0.0
821 1 -56.484846512 3.78943152 0.0
822 1 55.75095784 5.08712448 0.0
823 1 -45.5686552 -0.05695936 0.0
824 1 -48.901629816 16.00954864 0.0
825 1 -50.443769472 13.06050112 0.0
826 1 -52.91793 2.97799408 0.0
827 1 55.88658648 11.58399312 0.0
828 1 -52.644326648 1.6229916 0.0
829 1 -51.693408808 14.63330312 0.0
830 1 -51.280733576 7.96170464 0.0
831 1 -55.491325872 26.41035112 0.0
832 1 54.6704808 18.02180144 0.0
833 1 -44.59952904 26.80556504 0.0
834 1 -49.966851552 15.02373152 0.0
835 1 -57.394877336 2.95138192 0.0
836 1 -44.43075192 22.35514816 0.0
837 1 -45.06465824 9.626482 0.0