ITEM: TIMESTEP
0
ITEM: NUMBER OF ATOMS
9963
ITEM: BOX BOUNDS pp pp pp
-5.8359999999999999e+01 5.8359999999999999e+01
-5.8359999999999999e+01 5.8359999999999999e+01
-5.0000000000000000e-01 5.0000000000000000e-01
ITEM: ATOMS id type xs ys zs c_002[1] c_002[2]
1 1 0.124779 0.0302171 0.5 -0.483276 -0.0593603
2 1 0.951132 0.0827128 0.5 0.326637 -0.217343
3 1 0.0334943 0.925907 0.5 -0.644036 0.679494
4 1 0.04223 0.23635 0.5 -0.17374 0.281734
5 1 0.0931657 0.973329 0.5 0.209607 -0.601075
6 1 0.999177 0.340754 0.5 0.493634 -0.0982
7 1 0.0622013 0.304338 0.5 0.196639 0.777192
8 1 0.978906 0.160412 0.5 0.307963 0.834689
9 1 0.0511524 0.160108 0.5 -0.33503 -0.530594
10 1 0.898706 0.91437 0.5 -0.314529 0.859247
11 1 0.0647795 0.996621 0.5 -0.710781 0.417941
12 1 0.0440163 0.255579 0.5 -0.038691 -0.298739
13 1 0.0518936 0.0198194 0.5 0.146346 0.288334
14 1 0.0486675 0.891513 0.5 -0.855436 0.0271874
15 1 0.992553 0.105175 0.5 0.00251406 -0.274199
16 1 0.981916 0.300509 0.5 0.31953 -0.0665232
17 1 0.0985332 0.235158 0.5 0.0281023 0.468087
18 1 0.021996 0.0402529 0.5 -0.471373 -0.419915
19 1 0.0235278 0.952671 0.5 -0.621581 0.606546
20 1 0.827517 0.955501 0.5 0.401657 -0.157785
21 1 0.141005 0.902712 0.5 0.725811 -0.439096
22 1 0.12688 0.379997 0.5 -0.567072 -0.108857
23 1 0.0556984 0.000976653 0.5 -0.702225 0.205834
24 1 0.0199418 0.18721 0.5 -0.017555 0.0357984
25 1 0.0604202 0.0390578 0.5 0.176537 0.442846
26 1 0.00200826 0.998698 0.5 0.19593 0.438334
27 1 0.950624 0.00373396 0.5 -0.0137662 -0.816855
28 1 0.121231 0.288184 0.5 -0.271403 0.404436
29 1 0.0208069 0.258858 0.5 -0.273529 -0.783036
30 1 0.0548725 0.0296351 0.5 0.466497 0.646599
31 1 0.00851051 0.989046 0.5 0.231427 0.199907
32 1 0.0628345 0.985738 0.5 -0.344453 -0.174015
33 1 0.080056 0.299124 0.5 0.0479492 0.890622
34 1 0.966287 0.130694 0.5 0.755036 0.292959
35 1 0.994406 0.227155 0.5 0.495687 -0.707279
36 1 0.154765 0.274259 0.5 -0.816355 0.296129
37 1 0.932526 0.00233064 0.5 0.0254757 0.328804
38 1 0.136143 0.138359 0.5 -0.309449 0.765976
39 1 0.00231899 0.177095 0.5 -0.183819 0.79285
40 1 0.0852281 0.250706 0.5 0.583346 -0.218908
41 1 0.170192 0.910314 0.5 0.296392 -0.547094
42 1 0.0808294 0.237523 0.5 -0.689068 0.32704
43 1 0.0310829 0.432237 0.5 -0.0977756 0.690818
44 1 0.993173 0.0246422 0.5 0.243261 0.481873
45 1 0.0915966 0.242218 0.5 0.181634 0.424479
46 1 0.90996 0.121779 0.5 0.627491 -0.603915
47 1 0.0298995 0.179813 0.5 -0.874408 0.164129
48 1 0.22863 0.352181 0.5 0.238744 -0.0438323
49 1 0.920836 0.0530622 0.5 0.0296315 -0.945518
50 1 0.022411 0.132817 0.5 -0.545459 -0.650982
51 1 0.104656 0.197288 0.5 -0.953411 -0.0438651
52 1 0.124282 0.186549 0.5 -0.686003 0.472603
53 1 0.00227562 0.929545 0.5 0.431221 -0.117161
54 1 0.996872 0.0933907 0.5 0.510406 -0.830662
55 1 0.0652137 0.0310725 0.5 0.510713 0.567567
56 1 0.231008 0.114719 0.5 -0.772082 0.222558
57 1 0.0182683 0.988203 0.5 -0.119992 -0.575272
58 1 0.114738 0.12907 0.5 0.00569431 0.23838
59 1 0.87539 0.979758 0.5 -0.328809 0.597557
60 1 0.135361 0.249939 0.5 -0.411598 0.343312
61 1 0.096289 0.170571 0.5 -0.900786 0.273862
62 1 0.903786 0.0269179 0.5 0.70117 0.0426609
63 1 0.200506 0.429132 0.5 0.576593 0.144057
64 1 0.0271921 0.0887208 0.5 -0.120978 -0.520219
65 1 0.0826901 0.129002 0.5 0.456495 0.344911
66 1 0.0818822 0.260352 0.5 0.589862 -0.781834
67 1 0.83424 0.991458 0.5 -0.289109 -0.00281251
68 1 0.0132097 0.0449743 0.5 0.34951 -0.192251
69 1 0.0526347 0.991685 0.5 -0.352442 -0.0518293
70 1 0.00918783 0.0360178 0.5 0.459463 0.726643
71 1 0.169269 0.199327 0.5 -0.627728 0.64822
72 1 0.169622 0.311132 0.5 -0.648437 0.664344
73 1 0.2093 0.258574 0.5 -0.857763 -0.0667585
74 1 0.011313 0.0802004 0.5 0.0882667 -0.463711
75 1 0.113014 0.283305 0.5 -0.271767 0.737977
76 1 0.22654 0.216073 0.5 -0.957684 -0.116894
77 1 0.96033 0.0372395 0.5 0.120843 -0.708427
78 1 0.104988 0.110911 0.5 0.296321 0.260487
79 1 0.95517 0.0914667 0.5 -0.05266 0.481503
80 1 0.0727989 0.232271 0.5 -0.516261 0.0419971
81 1 0.191503 0.272334 0.5 -0.535039 0.675767
82 1 0.0879423 0.186426 0.5 -0.570525 0.204145
83 1 0.08687 0.208241 0.5 -0.955205 0.0449224
84 1 0.0693004 0.222104 0.5 -0.350605 0.49642
85 1 0.983421 0.12412 0.5 0.245369 0.760202
86 1 0.0871467 0.218856 0.5 -0.64934 0.276311
87 1 0.950409 0.140623 0.5 0.31548 -0.747125
88 1 0.866394 0.97559 0.5 -0.89581 0.165463
89 1 0.240786 0.282033 0.5 -0.72518 0.112276
90 1 0.205492 0.309316 0.5 -0.640359 0.141281
91 1 0.931813 0.116322 0.5 0.0676451 -0.767828
92 1 0.906234 0.157435 0.5 0.852819 -0.352092
93 1 0.158767 0.12667 0.5 0.0542593 0.938875
94 1 0.863626 0.00212413 0.5 0.292251 0.0453306
95 1 0.0880154 0.292487 0.5 -0.494725 0.379501
96 1 0.12939 0.269065 0.5 -0.68514 0.276244
97 1 0.99644 0.244738 0.5 0.726513 -0.633663
98 1 0.0293279 0.0462918 0.5 0.052291 -0.392674
99 1 0.0854163 0.0946157 0.5 -0.852568 -0.339081
100 1 0.0918555 0.278708 0.5 0.319355 0.348121
101 1 0.0613896 0.111214 0.5 -0.352104 0.442968
102 1 0.0725382 0.9309 0.5 -0.693658 0.0488256
103 1 0.923725 0.0276866 0.5 0.0609414 0.478052
104 1 0.191283 0.339453 0.5 -0.649733 0.468359
105 1 0.886777 0.105307 0.5 0.350866 -0.72994
106 1 0.000683153 0.0553296 0.5 0.38968 -0.59233
107 1 0.0869233 0.156038 0.5 -0.205848 0.639632
108 1 0.976366 0.247008 0.5 0.861004 -0.291258
109 1 0.0785288 0.851282 0.5 0.503773 0.343373
110 1 0.0409813 0.217173 0.5 -0.861658 0.332387
111 1 0.0139496 0.999109 0.5 0.307568 0.341111
112 1 0.933611 0.106957 0.5 0.0758293 -0.915962
113 1 0.219292 0.342378 0.5 -0.226904 0.415827
114 1 0.209977 0.268095 0.5 -0.57511 0.237323
115 1 0.0648259 0.178312 0.5 -0.217002 0.12655
116 1 0.994109 0.00469285 0.5 -0.0761338 -0.03189
117 1 0.916126 0.158001 0.5 0.783661 -0.419443
118 1 0.0625708 0.04852 0.5 0.0136052 0.705259
119 1 0.0965385 0.128973 0.5 0.239251 0.209342
120 1 0.159973 0.196161 0.5 -0.692556 0.635755
121 1 0.825345 0.138959 0.5 -0.154163 -0.0781056
122 1 0.274968 0.250758 0.5 -0.789513 0.0453374
123 1 0.113724 0.211752 0.5 -0.854109 0.190611
124 1 0.0606613 0.0773994 0.5 -0.401263 -0.770383
125 1 0.835026 0.836715 0.5 0.910597 -0.0985864
126 1 0.978738 0.979882 0.5 -0.316429 -0.723303
127 1 0.0754589 0.980928 0.5 -0.746619 -0.301765
128 1 0.0769428 0.153112 0.5 0.105785 0.412929
129 1 0.0852142 0.105936 0.5 -0.648764 -0.354461
130 1 0.210256 0.249017 0.5 -0.909032 -0.0697114
131 1 0.171135 0.209706 0.5 -0.75769 0.576999
132 1 0.0130927 0.889287 0.5 -0.592254 -0.349707
133 1 0.028279 0.860141 0.5 -0.360848 -0.32384
134 1 0.0399995 0.162551 0.5 -0.108146 -0.27227
135 1 0.191435 0.239689 0.5 -0.878305 0.249033
136 1 0.936208 0.0978166 0.5 0.338835 -0.812004
137 1 0.0139843 0.938364 0.5 -0.809795 -0.0461821
138 1 0.0539242 0.248636 0.5 -0.675527 0.100651
139 1 0.916607 0.00923846 0.5 0.48003 0.308893
140 1 0.145766 0.357926 0.5 -0.282752 -0.226831
141 1 0.00419732 0.299518 0.5 0.460596 -0.107189
142 1 0.0876788 0.869262 0.5 0.695302 -0.295712
143 1 0.133035 0.199779 0.5 -0.573778 0.049235
144 1 0.130116 0.0597207 0.5 -0.308989 -0.854855
145 1 0.0283525 0.974292 0.5 -0.594536 0.230204
146 1 0.139555 0.149842 0.5 -0.0967237 0.62905
147 1 0.00643145 0.215634 0.5 0.548287 -0.242913
148 1 0.0628721 0.245079 0.5 -0.459674 -0.265418
149 1 0.992049 0.172911 0.5 -0.406944 0.780858
150 1 0.0435987 0.0153399 0.5 0.0101791 0.194291
151 1 0.980042 0.0325796 0.5 -0.0864039 -0.416504
152 1 0.000819343 0.207587 0.5 0.58185 -0.630231
153 1 0.133422 0.230013 0.5 -0.423014 -0.0958312
154 1 0.960549 0.975816 0.5 -0.443534 -0.489697
155 1 0.0259716 0.00481386 0.5 -0.239302 -0.393525
156 1 0.0123129 0.0704837 0.5 0.237547 -0.616987
157 1 0.958982 0.987112 0.5 -0.0645691 -0.305565
158 1 0.99465 0.182826 0.5 -0.171752 0.836077
159 1 0.935056 0.986049 0.5 0.377558 0.580332
160 1 0.965974 0.0752076 0.5 0.313473 0.125574
161 1 0.861307 0.0870663 0.5 0.3304 -0.774488
162 1 0.965535 0.0933209 0.5 0.0287823 0.321854
163 1 0.881966 0.952196 0.5 -0.0916676 -0.776701
164 1 0.213155 0.124809 0.5 -0.676253 0.16805
165 1 0.0547464 0.942407 0.5 -0.63018 0.0700013
166 1 0.00357711 0.101126 0.5 0.326634 -0.805357
167 1 0.0491901 0.211017 0.5 -0.901623 0.20223
168 1 0.866156 0.936476 0.5 0.847583 -0.211805
169 1 0.0942036 0.915269 0.5 -0.195755 -0.215654
170 1 0.80829 0.961743 0.5 0.529057 -0.0861795
171 1 0.0833006 0.0162022 0.5 -0.220595 -0.791281
172 1 0.118002 0.353106 0.5 -0.0110689 0.490612
173 1 0.039616 0.134441 0.5 -0.788912 0.166719
174 1 0.958514 0.148533 0.5 0.0299101 -0.697376
175 1 0.208094 0.204374 0.5 -0.520882 0.60529
176 1 0.0769464 0.174414 0.5 -0.536825 -0.0703213
177 1 0.0807076 0.425677 0.5 -0.0583802 -0.18786
178 1 0.0306979 0.274466 0.5 -0.599049 0.126024
179 1 0.162486 0.216293 0.5 -0.804291 0.560472
180 1 0.0425962 0.929683 0.5 -0.159213 0.834802
181 1 0.142153 0.163142 0.5 -0.340118 0.258099
182 1 0.103687 0.153427 0.5 0.134552 0.178449
183 1 0.976194 0.0437301 0.5 0.449855 -0.321584
184 1 0.922749 0.904827 0.5 -0.488794 0.730867
185 1 0.0190337 0.268937 0.5 -0.264632 -0.0123941
186 1 0.0391497 0.1756 0.5 -0.909654 -0.091581
187 1 0.96625 0.045376 0.5 0.437648 -0.166652
188 1 0.0160784 0.0281211 0.5 0.286102 0.821904
189 1 0.0707188 0.920558 0.5 -0.196311 0.386617
190 1 0.0526183 0.302878 0.5 0.756136 0.633994
191 1 0.0476018 0.169889 0.5 -0.527985 -0.316442
192 1 0.269667 0.297149 0.5 -0.758513 0.478487
193 1 0.982734 0.0789474 0.5 -0.438187 -0.830703
194 1 0.148445 0.288953 0.5 -0.042021 0.631961
195 1 0.191702 0.348964 0.5 -0.762875 0.0498015
196 1 0.16392 0.2687 0.5 -0.778025 0.511068
197 1 0.987068 0.985691 0.5 -0.071489 -0.839884
198 1 0.116016 0.317426 0.5 -0.677402 0.0918604
199 1 0.0599955 0.225553 0.5 -0.408091 0.498338
200 1 0.0934904 0.901641 0.5 -0.484956 0.679228
201 1 0.97164 0.084141 0.5 0.193935 -0.206351
202 1 0.0600032 0.142029 0.5 -0.110166 0.987373
203 1 0.0193667 0.341201 0.5 -0.248324 -0.160733
204 1 0.933836 0.18346 0.5 0.61111 -0.405713
205 1 0.0506932 0.119315 0.5 -0.734716 0.0732248
206 1 0.107603 0.333814 0.5 -0.20598 -0.466365
207 1 0.0829477 0.145388 0.5 0.640919 0.451209
208 1 0.0177989 0.977684 0.5 -0.241761 -0.36055
209 1 0.961443 0.0842906 0.5 0.771677 0.387387
210 1 0.26123 0.301732 0.5 -0.849883 0.188873
211 1 0.0503947 0.107307 0.5 -0.348357 0.748417
212 1 0.162181 0.33739 0.5 -0.445256 0.508642
213 1 0.987347 0.133587 0.5 0.535299 0.541532
214 1 0.133031 0.157788 0.5 -0.127938 0.627961
215 1 0.0115327 0.250784 0.5 0.198272 -0.525146
216 1 0.965625 0.176322 0.5 0.539759 0.511096
217 1 0.106079 0.242789 0.5 0.147707 0.453294
218 1 0.0407767 0.206503 0.5 -0.877957 0.371932
219 1 0.0105783 0.169165 0.5 -0.512418 0.462782
220 1 0.970947 0.0352984 0.5 0.434102 -0.721205
221 1 0.0320433 0.213656 0.5 -0.768645 0.0892712
222 1 0.225688 0.193174 0.5 -0.774848 -0.0978416
223 1 0.0387344 0.10471 0.5 -0.375121 0.592788
224 1 0.981575 0.104049 0.5 -0.31547 0.122013
225 1 0.0282494 0.995811 0.5 -0.350694 -0.549157
226 1 0.132323 0.321574 0.5 0.396498 0.0644278
227 1 0.0306812 0.148511 0.5 -0.807318 -0.0979685
228 1 0.94558 0.0500114 0.5 0.528816 0.18348
229 1 0.101053 0.00788593 0.5 -0.0360786 -0.432121
230 1 0.0103943 0.0542279 0.5 0.522433 -0.779892
231 1 0.989022 0.0360286 0.5 -0.128526 0.0524765
232 1 0.0938381 0.0576028 0.5 0.0687106 -0.0452213
233 1 0.114921 0.372935 0.5 0.151492 0.712884
234 1 0.913071 0.0446601 0.5 0.427 -0.663867
235 1 0.990627 0.0854664 0.5 0.1152 -0.879852
236 1 0.904254 0.113876 0.5 0.467347 -0.46351
237 1 0.0761084 0.100023 0.5 -0.947694 -0.266992
238 1 0.991684 0.0450975 0.5 0.214301 0.00184006
239 1 0.0308612 0.192087 0.5 -0.680004 0.676228
240 1 0.959459 0.121557 0.5 0.706905 -0.236021
241 1 0.931884 0.165197 0.5 0.774539 -0.323992
242 1 0.970144 0.141432 0.5 0.264196 0.66483
243 1 0.0989834 0.13975 0.5 0.168887 0.777659
244 1 0.0257426 0.240041 0.5 0.161663 -0.0858959
245 1 0.0525991 0.0448557 0.5 0.0365059 0.436871
246 1 0.161828 0.581859 0.5 0.532942 0.428964
247 1 0.985219 0.15318 0.5 0.430328 0.700636
248 1 0.0777922 0.269868 0.5 0.74279 -0.533316
249 1 0.798946 0.150841 0.5 0.375369 0.381832
250 1 0.0205109 0.052727 0.5 0.109658 -0.539143
251 1 0.0558942 0.97849 0.5 -0.419311 -0.683437
252 1 0.158614 0.1543 0.5 0.142477 0.135648
253 1 0.970517 0.935056 0.5 -0.136804 0.818739
254 1 0.0731338 0.279636 0.5 0.831469 0.0531465
255 1 0.0285835 0.984097 0.5 -0.92225 -0.165651
256 1 0.020989 0.851553 0.5 -0.0077228 -0.846397
257 1 0.0670262 0.287779 0.5 0.427321 0.612303
258 1 0.0953009 0.213477 0.5 -0.954298 0.203795
259 1 0.0254894 0.0183705 0.5 -0.277571 -0.10902
260 1 0.0069993 0.118264 0.5 -0.306529 -0.573588
261 1 0.0730875 0.126773 0.5 0.47748 0.791332
262 1 0.984406 0.0681265 0.5 -0.341906 -0.723864
263 1 0.925986 0.953272 0.5 -0.377367 0.656959
264 1 0.853781 0.105507 0.5 0.420054 -0.784229
265 1 0.00204283 0.819777 0.5 -0.446173 -0.534988
266 1 0.989813 0.235939 0.5 0.717245 -0.647381
267 1 0.0251866 0.295928 0.5 0.139066 -0.672724
268 1 0.0205 0.175375 0.5 -0.959174 -0.0237316
269 1 0.989588 0.262468 0.5 0.510097 -0.338458
270 1 0.195718 0.101855 0.5 -0.895952 0.164882
271 1 0.16442 0.518842 0.5 -0.330317 -0.493367
272 1 0.00176181 0.144328 0.5 -0.0523204 -0.266355
273 1 0.0341726 0.0357287 0.5 -0.0332798 -0.122148
274 1 0.910388 0.969704 0.5 -0.228648 0.391335
275 1 0.145506 0.216928 0.5 -0.563757 -0.104089
276 1 0.142246 0.296406 0.5 0.0434891 0.793586
277 1 0.0574863 0.195367 0.5 -0.884414 0.129771
278 1 0.0190701 0.142696 0.5 -0.403104 0.140829
279 1 0.12937 0.973089 0.5 -0.298573 -0.621589
280 1 0.0267751 0.962719 0.5 -0.536139 0.627668
281 1 0.990039 0.0139698 0.5 0.46878 0.336984
282 1 0.0449373 0.0882165 0.5 0.138246 0.708642
283 1 0.111427 0.0946639 0.5 -0.342316 0.137993
284 1 0.928592 0.992973 0.5 0.533026 0.753125
285 1 0.0412507 0.0766387 0.5 -0.0137198 0.496923
286 1 0.952485 0.113749 0.5 0.41641 -0.735122
287 1 0.961783 0.204454 0.5 -0.0257889 -0.656373
288 1 0.0781747 0.0794592 0.5 -0.571658 -0.675626
289 1 0.29141 0.199347 0.5 0.0125431 -0.0322102
290 1 0.067513 0.134678 0.5 0.451141 0.752476
291 1 0.0541729 0.285534 0.5 0.275281 0.206857
292 1 0.991644 0.891469 0.5 0.255367 -0.277353
293 1 0.960878 0.942782 0.5 0.128398 0.638682
294 1 0.0671998 0.190362 0.5 -0.628986 0.566804
295 1 0.0842398 0.311967 0.5 0.134504 0.00342637
296 1 0.0614984 0.123431 0.5 -0.140581 0.32634
297 1 0.910787 0.000374503 0.5 0.227303 0.159809
298 1 0.0738968 0.0641367 0.5 -0.0636022 -0.816202
299 1 0.980292 0.0522515 0.5 -0.129704 -0.217139
300 1 0.036236 0.00482678 0.5 0.495736 -0.155742
301 1 0.0983246 0.30732 0.5 -0.87164 -0.0795771
302 1 0.00235235 0.0163821 0.5 0.447352 0.409009
303 1 0.914915 0.0725897 0.5 0.442417 -0.632366
304 1 0.897693 0.997215 0.5 -0.456089 0.507938
305 1 0.164059 0.347624 0.5 -0.731862 0.573953
306 1 0.909006 0.0934984 0.5 0.51303 -0.744818
307 1 0.905156 0.130349 0.5 0.370288 -0.500793
308 1 0.050496 0.331966 0.5 0.251111 -0.356704
309 1 0.063535 0.946807 0.5 -0.538175 -0.303005
310 1 0.142217 0.176468 0.5 -0.540873 0.0356698
311 1 0.965756 0.993809 0.5 0.0234087 -0.457427
312 1 0.107718 0.312767 0.5 -0.915978 0.157253
313 1 0.0108274 0.150232 0.5 -0.489911 0.0311248
314 1 0.0130761 0.223 0.5 0 0
315 1 0.0383994 0.363085 0.5 -0.00499902 -0.176167
316 1 0.968515 0.468247 0.5 -0.326785 0.594083
317 1 0.94226 0.372929 0.5 0.199512 0.0526398
318 1 0.0276506 0.346391 0.5 -0.452852 -0.616497
319 1 0.119667 0.468477 0.5 0.0476483 -0.615307
320 1 0.0894905 0.302871 0.5 -0.340166 0.209895
321 1 0.18548 0.298094 0.5 -0.809978 0.561997
322 1 0.182993 0.365344 0.5 0.201692 0.340922
323 1 0.940224 0.421474 0.5 -0.276893 0.738847
324 1 0.0433238 0.153409 0.5 -0.530424 -0.126411
325 1 0.925497 0.36854 0.5 0.499026 -0.781922
326 1 0.0281845 0.400222 0.5 -0.554166 0.598028
327 1 0.171009 0.331114 0.5 -0.757978 0.624948
328 1 0.108793 0.3931 0.5 0.0593919 0.443304
329 1 0.011599 0.437463 0.5 -0.100461 -0.212108
330 1 0.166069 0.393796 0.5 0.964025 0.11219
331 1 0.910369 0.214575 0.5 0.157772 0.0491589
332 1 0.93696 0.411028 0.5 0.133242 0.66698
333 1 0.0305747 0.160664 0.5 -0.569859 -0.253094
334 1 0.0448543 0.321036 0.5 0.532483 -0.126762
335 1 0.00462486 0.271213 0.5 0.344956 -0.50656
336 1 0.97646 0.495671 0.5 -0.503975 -0.361084
337 1 0.143656 0.321355 0.5 0.16543 0.0495683
338 1 0.0941756 0.345622 0.5 -0.559522 -0.431724
339 1 0.162285 0.258236 0.5 -0.580979 0.2165
340 1 0.125176 0.309779 0.5 -0.160046 0.578901
341 1 0.245358 0.214396 0.5 -0.8582 -0.0978133
342 1 0.173767 0.283005 0.5 -0.775053 0.42246
343 1 0.959908 0.495204 0.5 -0.734717 -0.104979
344 1 0.0771341 0.528785 0.5 0.487188 -0.272946
345 1 0.210928 0.429325 0.5 0.274307 0.425354
346 1 0.1879 0.329835 0.5 -0.600598 0.277301
347 1 0.256001 0.260581 0.5 -0.939816 0.167076
348 1 0.139185 0.508016 0.5 0.407094 0.41497
349 1 0.107394 0.253241 0.5 0.0312822 0.818024
350 1 0.157038 0.284552 0.5 -0.215979 0.0655567
351 1 0.998032 0.633027 0.5 0.193849 0.430208
352 1 0.091366 0.39089 0.5 -0.598043 -0.50378
353 1 0.160746 0.317163 0.5 -0.498322 0.741226
354 1 0.878775 0.215995 0.5 0.806864 -0.329948
355 1 0.929829 0.357706 0.5 0.787071 -0.126397
356 1 0.249291 0.288453 0.5 -0.660317 0.123913
357 1 0.0284176 0.409836 0.5 -0.697649 0.0775162
358 1 0.154584 0.354163 0.5 -0.687597 -0.0838192
359 1 0.225814 0.325528 0.5 -0.605627 0.588091
360 1 0.21592 0.313793 0.5 -0.409116 0.534109
361 1 0.306845 0.317388 0.5 -0.868589 -0.339207
362 1 0.122821 0.40824 0.5 -0.356409 0.638941
363 1 0.990255 0.444476 0.5 -0.0398311 -0.20611
364 1 0.976633 0.292716 0.5 0.286409 -0.240235
365 1 0.229564 0.370277 0.5 0.107319 -0.134524
366 1 0.0650092 0.394621 0.5 -0.676545 -0.432537
367 1 0.0277434 0.423304 0.5 -0.269748 0.191269
368 1 0.00696273 0.370093 0.5 -0.722224 -0.145617
369 1 0.0744286 0.559599 0.5 -0.468694 -0.186446
370 1 0.171213 0.364103 0.5 0.181451 -0.504863
371 1 0.917813 0.342473 0.5 0.405318 -0.0420139
372 1 0.0736609 0.317532 0.5 0.17255 -0.109934
373 1 0.182754 0.543965 0.5 0.33122 -0.687356
374 1 0.186042 0.394249 0.5 0.598464 -0.360229
375 1 0.242404 0.302538 0.5 -0.71871 0.401341
376 1 0.934445 0.313608 0.5 0.949335 -0.209344
377 1 0.87519 0.426621 0.5 -0.543674 0.362976
378 1 0.945262 0.329769 0.5 0.913082 -0.291229
379 1 0.0467131 0.471421 0.5 0.792868 0.515265
380 1 0.0740156 0.390044 0.5 -0.955352 -0.21712
381 1 0.0128172 0.457299 0.5 0.20336 0.782929
382 1 0.0723941 0.242434 0.5 -0.227168 -0.125384
383 1 0.126598 0.418761 0.5 -0.452905 0.300433
384 1 0.939295 0.304484 0.5 0.836278 -0.469301
385 1 0.934003 0.397001 0.5 0.304206 0.657125
386 1 0.961368 0.3363 0.5 0.838422 -0.438154
387 1 0.0242672 0.355731 0.5 0.16564 0.109821
388 1 0.0825835 0.278965 0.5 0.920653 0.0682411
389 1 0.130548 0.528552 0.5 -0.146842 -0.196147
390 1 0.851087 0.371894 0.5 -0.712177 0.423719
391 1 0.891736 0.595658 0.5 -0.0662131 -0.880235
392 1 0.834572 0.245554 0.5 0.628667 -0.199985
393 1 0.0490167 0.342281 0.5 0.271304 -0.255088
394 1 0.0997385 0.362378 0.5 0.452172 0.0443811
395 1 0.286624 0.306448 0.5 -0.486324 0.200298
396 1 0.00863357 0.401362 0.5 -0.702353 0.602374
397 1 0.984616 0.579385 0.5 0.0741002 0.562173
398 1 0.17473 0.29346 0.5 -0.151605 0.527332
399 1 0.0462203 0.311325 0.5 0.56072 0.0782386
400 1 0.0899003 0.470284 0.5 -0.125218 -0.174843
401 1 0.243488 0.183598 0.5 -0.906981 0.193344
402 1 0.929341 0.321871 0.5 0.960808 -0.130802
403 1 0.140948 0.448279 0.5 -0.678199 0.197558
404 1 0.189983 0.372038 0.5 -0.478506 -0.0793893
405 1 0.0104077 0.447058 0.5 -0.515661 0.389254
406 1 0.167658 0.412479 0.5 0.808182 0.11198
407 1 0.0373171 0.49498 0.5 0.272896 0.575386
408 1 0.0766979 0.289468 0.5 0.497279 0.732
409 1 0.991903 0.281767 0.5 0.521429 -0.361908
410 1 0.140774 0.544786 0.5 0.516226 0.444074
411 1 0.0961571 0.192974 0.5 -0.72766 -0.382751
412 1 0.205707 0.400964 0.5 0.681276 0.254913
413 1 0.139821 0.330488 0.5 -0.248076 -0.528331
414 1 0.961549 0.437035 0.5 -0.271302 0.905692
415 1 0.0737697 0.399263 0.5 -0.830963 -0.214137
416 1 0.966336 0.36456 0.5 0.860125 0.0587528
417 1 0.041933 0.435963 0.5 0.0217557 0.185518
418 1 0.849431 0.409111 0.5 -0.723708 0.0386241
419 1 0.0777355 0.367692 0.5 -0.0878408 0.100562
420 1 0.863146 0.20776 0.5 0.936776 -0.233483
421 1 0.110989 0.431322 0.5 -0.32748 0.375551
422 1 0.0551936 0.561104 0.5 0.676374 -0.325572
423 1 0.992314 0.315122 0.5 0 0
424 1 0.0195437 0.37431 0.5 -0.427885 0.171987
425 1 0.0174575 0.383817 0.5 -0.599887 -0.1175
426 1 0.219535 0.264461 0.5 -0.80581 0.188969
427 1 0.0202574 0.448735 0.5 0.483215 0.345299
428 1 0.046062 0.390992 0.5 -0.465628 -0.492932
429 1 0.234539 0.342891 0.5 0.0766665 0.226505
430 1 0.0697106 0.325989 0.5 0.220488 -0.310194
431 1 0.886081 0.357498 0.5 -0.110047 0.543172
432 1 0.141923 0.489472 0.5 0.550959 -0.0580663
433 1 0.156308 0.393017 0.5 0.910705 -0.0674341
434 1 0.136429 0.394216 0.5 0.611236 -0.152113
435 1 0.305639 0.458641 0.5 0.639377 -0.45856
436 1 0.123473 0.237633 0.5 -0.238505 0.746848
437 1 0.217506 0.332971 0.5 -0.420909 0.9031
438 1 0.110379 0.487398 0.5 0.0573788 -0.196869
439 1 0.0944588 0.20264 0.5 -0.706997 -0.0807633
440 1 0.972162 0.356347 0.5 0.38441 -0.000582249
441 1 0.106093 0.353624 0.5 0.535821 0.276589
442 1 0.821073 0.394337 0.5 -0.738156 -0.061685
443 1 0.156411 0.555141 0.5 0.869089 -0.242097
444 1 0.07337 0.457309 0.5 0.21687 -0.473251
445 1 0.0505955 0.359186 0.5 0.0645424 -0.652561
446 1 0.127231 0.572873 0.5 0.948795 0.20249
447 1 0.983547 0.201647 0.5 0.213423 -0.716591
448 1 0.907504 0.37591 0.5 -0.0183473 0.167727
449 1 0.210673 0.549559 0.5 0.523549 -0.674409
450 1 0.0364285 0.418715 0.5 0.028225 -0.313208
451 1 0.162147 0.326782 0.5 -0.334125 0.267947
452 1 0.990853 0.38209 0.5 -0.281769 0.487279
453 1 0.172688 0.250553 0.5 -0.742717 -0.186938
454 1 0.0448966 0.245521 0.5 -0.0937497 0.579089
455 1 0.170519 0.385001 0.5 0.852341 -0.0794766
456 1 0.0772887 0.137151 0.5 0.669547 0.263955
457 1 0.898177 0.341895 0.5 0.517345 -0.200612
458 1 0.951249 0.395107 0.5 0.00175403 0.308901
459 1 0.982499 0.317054 0.5 0.210439 -0.672167
460 1 0.0276576 0.379519 0.5 -0.669437 -0.168381
461 1 0.0625908 0.500486 0.5 -0.695884 -0.162443
462 1 0.0356613 0.638319 0.5 0.371937 0.191372
463 1 0.163496 0.225662 0.5 -0.8478 0.430268
464 1 0.0624182 0.405256 0.5 -0.539547 -0.123919
465 1 0.177588 0.173958 0.5 -0.669925 0.424325
466 1 0.0586285 0.365843 0.5 0.0940985 -0.730165
467 1 0.053207 0.541804 0.5 0.828083 -0.380375
468 1 0.101138 0.450687 0.5 -0.155116 0.714925
469 1 0.163623 0.246513 0.5 -0.899582 -0.0309478
470 1 0.104418 0.343851 0.5 -0.0265042 -0.346612
471 1 0.0752805 0.447962 0.5 -0.27369 -0.281211
472 1 0.922519 0.461186 0.5 -0.639518 -0.502161
473 1 0.0793138 0.517213 0.5 0.461367 -0.208686
474 1 0.130587 0.542893 0.5 0.583063 -0.123198
475 1 0.109197 0.506991 0.5 -0.0906483 -0.36071
476 1 0.146237 0.348651 0.5 -0.895096 -0.34174
477 1 0.956268 0.364355 0.5 0.932469 -0.118117
478 1 0.982708 0.416483 0.5 -0.397276 -0.0235491
479 1 0.855796 0.18011 0.5 0.81228 -0.382728
480 1 0.116005 0.328217 0.5 -0.304153 -0.128327
481 1 0.177394 0.411696 0.5 0.891443 -0.0471932
482 1 0.950183 0.320878 0.5 0.813962 -0.44791
483 1 0.925868 0.250484 0.5 0.718529 0.00205745
484 1 0.887401 0.305493 0.5 0.144338 0.316706
485 1 0.470004 0.350842 0.5 -0.680638 -0.521656
486 1 0.966055 0.310355 0.5 0.615842 -0.669809
487 1 0.975902 0.308965 0.5 0.421304 -0.373814
488 1 0.143112 0.42146 0.5 0.205089 0.294975
489 1 0.016911 0.493253 0.5 0.969664 0.230427
490 1 0.984796 0.2719 0.5 0.797884 -0.314089
491 1 0.985542 0.289244 0.5 0.418094 -0.383326
492 1 0.177813 0.304129 0.5 -0.469664 0.660809
493 1 0.0713447 0.262367 0.5 0.606099 -0.768789
494 1 0.995661 0.425555 0.5 0.266358 -0.0177951
495 1 0.0238079 0.209068 0.5 -0.508422 0.288542
496 1 0.97256 0.123068 0.5 0.574492 0.417462
497 1 0.131835 0.336383 0.5 0.075768 -0.426038
498 1 0.00235757 0.280277 0.5 0.346694 -0.74219
499 1 0.215537 0.323392 0.5 -0.532189 0.594144
500 1 0.940483 0.431378 0.5 -0.222553 0.765071
501 1 0.0648678 0.385169 0.5 -0.654346 -0.181488
502 1 0.0345156 0.25454 0.5 0.104829 0.283842
503 1 0.107848 0.544379 0.5 0.794771 -0.0479737
504 1 0.0570455 0.532839 0.5 0.45866 -0.0733473
505 1 0.135547 0.375672 0.5 0.605388 0.147101
506 1 0.871269 0.602613 0.5 0.0927084 -0.131131
507 1 0.151477 0.366592 0.5 0.769731 -0.283268
508 1 0.105409 0.371233 0.5 0.292393 0.572729
509 1 0.153511 0.51481 0.5 -0.329707 -0.00150891
510 1 0.170605 0.585762 0.5 0.324026 0.544487
511 1 0.967155 0.568373 0.5 -0.03139 -0.712837
512 1 0.0637917 0.479134 0.5 -0.671453 -0.562002
513 1 0.0637513 0.318124 0.5 -0.10376 -0.469976
514 1 0.883921 0.343765 0.5 -0.328025 0.630632
515 1 0.0557711 0.377473 0.5 -0.211812 -0.784618
516 1 0.0189554 0.405652 0.5 -0.675913 0.649122
517 1 0.963785 0.291493 0.5 0.464999 -0.322142
518 1 0.198319 0.323979 0.5 -0.748142 0.417672
519 1 0.2306 0.385194 0.5 0.407075 0.186362
520 1 0.990919 0.453825 0.5 0.355898 0.0776333
521 1 0.0534011 0.435072 0.5 0.339904 0.585302
522 1 0.766844 0.401073 0.5 -0.536382 0.292423
523 1 0.0487618 0.294164 0.5 0.47369 0.377978
524 1 0.0891674 0.23131 0.5 -0.510216 0.681801
525 1 0.190312 0.219834 0.5 -0.589042 0.546567
526 1 0.146177 0.279132 0.5 -0.649754 0.597652
527 1 0.19362 0.541785 0.5 0.748718 -0.501776
528 1 0.976088 0.510556 0.5 -0.268678 -0.408241
529 1 0.134137 0.302693 0.5 -0.287784 0.726423
530 1 0.114958 0.344178 0.5 0.381209 0.590459
531 1 0.991236 0.510539 0.5 -0.183639 -0.202013
532 1 0.248934 0.277208 0.5 -0.88638 0.345675
533 1 0.163884 0.430152 0.5 -0.408087 0.337684
534 1 0.968402 0.478802 0.5 -0.767383 0.420335
535 1 0.0438122 0.350293 0.5 0.594289 -0.159749
536 1 0.922047 0.47107 0.5 -0.68381 -0.355868
537 1 0.176578 0.372905 0.5 0.644011 -0.0666685
538 1 0.0160684 0.350712 0.5 -0.0872743 -0.42028
539 1 0.0423783 0.426776 0.5 -0.295007 -0.335083
540 1 0.0729267 0.354902 0.5 -0.271343 -0.607095
541 1 0.0415122 0.507975 0.5 0.314882 0.644579
542 1 0.00420404 0.430866 0.5 -0.126609 -0.302201
543 1 0.948879 0.424859 0.5 -0.203393 0.733233
544 1 0.152576 0.297443 0.5 0.439102 0.000715725
545 1 0.220994 0.285051 0.5 -0.804075 0.565983
546 1 0.194886 0.421541 0.5 0.670131 0.0682603
547 1 0.923897 0.396221 0.5 0.781439 0.249725
548 1 0.957911 0.534737 0.5 -0.190315 -0.744427
549 1 0.197818 0.303478 0.5 -0.397397 0.102069
550 1 0.998971 0.263626 0.5 0.733117 -0.349007
551 1 0.156637 0.411411 0.5 0.634104 -0.179228
552 1 0.194086 0.292413 0.5 -0.677755 0.352575
553 1 0.0897056 0.320597 0.5 -0.0531224 -0.461014
554 1 0.0715701 0.536544 0.5 0.33727 0.437444
555 1 0.0591168 0.165239 0.5 -0.562014 -0.394675
556 1 0.121912 0.274921 0.5 -0.321359 0.248478
557 1 0.00827369 0.360793 0.5 0.0496909 0.148485
558 1 0.926831 0.221295 0.5 0.804572 -0.431375
559 1 0.913561 0.383128 0.5 -0.21169 -0.169375
560 1 0.0613284 0.263852 0.5 0.317884 -0.16423
561 1 0.10776 0.32247 0.5 -0.975505 -0.0501143
562 1 0.917017 0.322187 0.5 0.69591 -0.303321
563 1 0.287992 0.609759 0.5 0.879023 -0.147168
564 1 0.0505204 0.221473 0.5 -0.787591 0.549015
565 1 0.943416 0.400411 0.5 -0.0656854 0.658645
566 1 0.864376 0.226816 0.5 0.880762 0.0216944
567 1 0.969847 0.488926 0.5 -0.532972 0.155431
568 1 0.0276671 0.326934 0.5 -0.302701 0.152534
569 1 0.0991107 0.327468 0.5 -0.538198 -0.423296
570 1 0.0923697 0.456901 0.5 -0.226361 0.294422
571 1 0.127394 0.347437 0.5 -0.313976 -0.299739
572 1 0.202038 0.275287 0.5 -0.423189 0.769896
573 1 0.0645813 0.347783 0.5 -0.0176377 -0.899017
574 1 0.15168 0.402206 0.5 0.881479 -0.363557
575 1 0.929309 0.387846 0.5 0.628055 0.30699
576 1 0.97681 0.565496 0.5 0.329847 -0.736526
577 1 0.199241 0.333463 0.5 -0.704888 0.352071
578 1 0.0232491 0.305607 0.5 0.0712649 -0.529827
579 1 0.126647 0.429949 0.5 -0.317826 0.114295
580 1 0.902091 0.167512 0.5 0.899473 -0.347998
581 1 0.103404 0.459877 0.5 0.428648 0.350683
582 1 0.0911908 0.535325 0.5 0.720498 -0.223533
583 1 0.199271 0.377488 0.5 -0.329528 0.287283
584 1 0.0687557 0.159747 0.5 -0.579631 -0.205509
585 1 0.139136 0.438523 0.5 -0.214717 0.446427
586 1 0.992437 0.413072 0.5 -0.687004 0.157951
587 1 0.0704691 0.297055 0.5 0.2648 0.909804
588 1 0.115266 0.307 0.5 -0.692721 0.534674
589 1 0.103454 0.535932 0.5 0.785668 0.0173404
590 1 0.168158 0.30172 0.5 0.0339197 0.699259
591 1 0.218799 0.254398 0.5 -0.780313 0.212927
592 1 0.0538348 0.491773 0.5 -0.1005 0.151336
593 1 0.110184 0.440861 0.5 -0.321422 0.00582213
594 1 0.956009 0.517887 0.5 -0.0761652 0.0523217
595 1 0.24371 0.461983 0.5 0.288005 0.482148
596 1 0.195661 0.312723 0.5 -0.341833 0.141647
597 1 0.101537 0.400589 0.5 0.191988 0.176776
598 1 0.178924 0.324496 0.5 -0.713611 0.325347
599 1 0.0279472 0.364824 0.5 0.356657 0.232553
600 1 0.0985312 0.317334 0.5 -0.823132 0.0287561
601 1 0.111642 0.274046 0.5 -0.122383 0.77178
602 1 0.051302 0.261838 0.5 0.167359 -0.352984
603 1 0.0965422 0.510137 0.5 0.543396 -0.344842
604 1 0.172935 0.350999 0.5 -0.822596 0.267453
605 1 0.0333385 0.459807 0.5 0.52596 0.817857
606 1 0.991551 0.163258 0.5 -0.106027 0.535583
607 1 0.0632247 0.437765 0.5 0.0436032 0.476775
608 1 0.0580667 0.294673 0.5 0.516244 0.604862
609 1 0.0462864 0.274386 0.5 0.467905 -0.238063
610 1 0.97278 0.318004 0.5 0.703247 -0.521105
611 1 0.942842 0.495972 0.5 -0.144439 -0.10673
612 1 0.0564148 0.31191 0.5 0.129844 0.121521
613 1 0.164294 0.235807 0.5 -0.829331 0.331022
614 1 0.0410635 0.264662 0.5 0.504583 -0.156936
615 1 0.983646 0.463546 0.5 0.57239 0.34828
616 1 0.0868525 0.526296 0.5 0.718917 -0.311676
617 1 0.18327 0.277971 0.5 -0.798482 0.466358
618 1 0.000830299 0.407178 0.5 -0.842758 0.53075
619 1 0.218762 0.357393 0.5 -0.478024 -0.305018
620 1 0.219878 0.412241 0.5 0.308592 0.20035
621 1 0.00823863 0.391096 0.5 -0.687713 0.61929
622 1 0.005704 0.583506 0.5 -0.163935 0.39081
623 1 0.0920153 0.367733 0.5 -0.375503 0.384705
624 1 0.0122129 0.277248 0.5 0.351525 -0.196948
625 1 0.989152 0.324218 0.5 0.562083 -0.428472
626 1 0.998515 0.289089 0.5 0.71342 -0.0659409
627 1 0.964904 0.457009 0.5 -0.272058 0.857008
628 1 0.131522 0.36558 0.5 0.656543 0.0726992
629 1 0.981971 0.255108 0.5 0.577153 -0.717424
630 1 0.983133 0.336477 0.5 0.452808 -0.0404697