# LAMMPS data file written by Ovito 3.7.11
9963 atoms
1 atom types
-58.36 58.36 xlo xhi
-58.36 58.36 ylo yhi
-0.5 0.5 zlo zhi

Atoms  # atomic

1 1 -43.79579512 -54.833060088 0.0
2 1 52.65612704 -48.705761984 0.0
3 1 -54.450545304 49.71186504 0.0
4 1 -53.4309144 -30.773228 0.0
5 1 -47.485699496 55.24696088 0.0
6 1 58.26393944 -18.58719312 0.0
7 1 -51.099864264 -22.83766864 0.0
8 1 55.89790832 -39.63671136 0.0
9 1 -52.389491872 -39.67219424 0.0
10 1 46.53696432 48.3652664 0.0
11 1 -50.79893676 57.96560312 0.0
12 1 -53.222417464 -28.52881912 0.0
13 1 -52.302979008 -56.046679632 0.0
14 1 -52.6795294 45.69739736 0.0
15 1 57.49078616 -46.083974 0.0
16 1 56.24923552 -23.28458952 0.0
17 1 -46.859204896 -30.91235824 0.0
18 1 -55.79262688 -53.661681512 0.0
19 1 -55.613835184 52.83575912 0.0
20 1 38.22778424 53.16607672 0.0
21 1 -41.9018964 47.00454464 0.0
22 1 -43.5505664 -14.00675016 0.0
23 1 -51.858882752 -58.2460050618 0.0
24 1 -56.032393104 -36.5088488 0.0
25 1 -51.307754256 -53.801173584 0.0
26 1 -58.1255958928 58.20803056 0.0
27 1 52.59683328 -57.9241721888 0.0
28 1 -44.20991768 -24.72316352 0.0
29 1 -55.931418632 -28.14609424 0.0
30 1 -51.9552818 -54.900991128 0.0
31 1 -57.3666532728 57.08144912 0.0
32 1 -51.02595716 56.69533936 0.0
33 1 -49.01586368 -23.44624672 0.0
34 1 54.42501864 -43.10539632 0.0
35 1 57.70706832 -31.8464684 0.0
36 1 -40.2958292 -26.34848952 0.0
37 1 50.48443472 -58.0879676992 0.0
38 1 -42.46938904 -42.21073752 0.0
39 1 -58.0893274872 -37.6894716 0.0
40 1 -48.412176168 -29.09759568 0.0
41 1 -38.49518976 47.89185008 0.0
42 1 -48.925592432 -30.63631544 0.0
43 1 -54.732003912 -7.90929736 0.0
44 1 57.56315256 -55.483762416 0.0
45 1 -47.668844848 -30.08831504 0.0
46 1 47.8505312 -44.14595512 0.0
47 1 -54.87013036 -37.37222664 0.0
48 1 -31.6743064 -17.25343368 0.0
49 1 49.11997792 -52.166580016 0.0
50 1 -55.74418808 -42.85759976 0.0
51 1 -46.14455168 -35.33254464 0.0
52 1 -43.85380496 -36.58600072 0.0
53 1 -58.0943896336 50.1364924 0.0
54 1 57.99489984 -47.459437496 0.0
55 1 -50.748256936 -54.7332178 0.0
56 1 -31.39674624 -44.96999832 0.0
57 1 -56.227724024 56.98305416 0.0
58 1 -44.96778064 -43.2949496 0.0
59 1 43.8155208 55.99735376 0.0
60 1 -42.56066408 -29.18711992 0.0
61 1 -47.12114792 -38.45095288 0.0
62 1 47.12990192 -55.218142712 0.0
63 1 -34.95693968 -8.27171296 0.0
64 1 -55.186138088 -48.004508224 0.0
65 1 -48.708411528 -43.30288656 0.0
66 1 -48.802709616 -27.97171456 0.0
67 1 39.0124928 57.36297776 0.0
68 1 -56.818163816 -53.110599704 0.0
69 1 -52.216477816 57.3894732 0.0
70 1 -57.2875964824 -54.156002384 0.0
71 1 -38.60292232 -35.09455256 0.0
72 1 -38.56172016 -22.04467296 0.0
73 1 -33.930504 -28.17924272 0.0
74 1 -57.03954664 -48.999009312 0.0
75 1 -45.16900592 -25.2926404 0.0
76 1 -31.9182512 -33.13995944 0.0
77 1 53.7297176 -54.01340556 0.0
78 1 -46.10580064 -45.41446808 0.0
79 1 53.1274424 -47.684006776 0.0
80 1 -49.862912392 -31.24932888 0.0
81 1 -36.00776984 -26.57317552 0.0
82 1 -48.095374744 -36.60035728 0.0
83 1 -48.2205336 -34.05411048 0.0
84 1 -50.271257312 -32.43602112 0.0
85 1 56.42489912 -43.8727136 0.0
86 1 -48.188237176 -32.81512768 0.0
87 1 52.57173848 -41.94648344 0.0
88 1 42.76550768 55.5108648 0.0
89 1 -30.25545808 -25.44110824 0.0
90 1 -34.37497376 -22.25663648 0.0
91 1 50.40121336 -44.78289616 0.0
92 1 47.41563248 -39.9841868 0.0
93 1 -39.82871576 -43.5750776 0.0
94 1 42.44242672 -58.1120715464 0.0
95 1 -48.086842512 -24.22091736 0.0
96 1 -43.2575992 -26.9547332 0.0
97 1 57.9444768 -29.79418064 0.0
98 1 -54.936847512 -52.956821104 0.0
99 1 -48.390209464 -47.316455496 0.0
100 1 -47.63862604 -25.82920224 0.0
101 1 -51.194605888 -45.37910192 0.0
102 1 -49.893341296 50.294648 0.0
103 1 49.457182 -55.128420048 0.0
104 1 -36.03344824 -18.73904584 0.0
105 1 45.14461144 -46.06856696 0.0
106 1 -58.2802623818 -51.901929088 0.0
107 1 -48.214312424 -40.14724464 0.0
108 1 55.60143952 -29.52922624 0.0
109 1 -49.194118464 41.00163504 0.0
110 1 -53.576662664 -33.01156744 0.0
111 1 -56.731802688 58.25600248 0.0
112 1 50.61107592 -45.87597896 0.0
113 1 -32.76423776 -18.39763984 0.0
114 1 -33.85148456 -27.0679516 0.0
115 1 -50.793520952 -37.54742336 0.0
116 1 57.67240248 -57.812250548 0.0
117 1 48.57022672 -39.91812328 0.0
118 1 -51.056736224 -52.6967456 0.0
119 1 -47.09202628 -43.30627144 0.0
120 1 -39.68795144 -35.46408808 0.0
121 1 37.9742684 -42.14070552 0.0
122 1 -26.26573504 -29.09152624 0.0
123 1 -45.08613472 -33.64430656 0.0
124 1 -51.279613064 -49.325942032 0.0
125 1 39.10423472 39.3013748 0.0
126 1 55.87829936 56.01182704 0.0
127 1 -49.552437192 56.13391616 0.0
128 1 -49.379236384 -40.48876736 0.0
129 1 -48.413798576 -45.99515008 0.0
130 1 -33.81891968 -29.29473576 0.0
131 1 -38.3851228 -33.88311568 0.0
132 1 -56.831820056 45.43757864 0.0
133 1 -55.05927512 42.03565752 0.0
134 1 -53.69125836 -39.38704728 0.0
135 1 -36.0157068 -30.38349992 0.0
136 1 50.91419776 -46.942846448 0.0
137 1 -56.727752504 51.16584608 0.0
138 1 -52.065967376 -29.33920608 0.0
139 1 48.62636904 -57.2816869488 0.0
140 1 -41.34619248 -16.58287728 0.0
141 1 -57.8700888096 -23.40025904 0.0
142 1 -48.126130464 43.10026064 0.0
143 1 -42.8321548 -35.04179512 0.0
144 1 -43.17286048 -51.389399896 0.0
145 1 -55.0506962 55.35936224 0.0
146 1 -42.0711404 -40.87044176 0.0
147 1 -57.609321156 -33.19119952 0.0
148 1 -51.021568488 -29.75437912 0.0
149 1 57.43195928 -38.17782808 0.0
150 1 -53.271159736 -56.569526872 0.0
151 1 56.03050224 -54.557309088 0.0
152 1 -58.264366285 -34.13044536 0.0
153 1 -42.78698416 -31.51288264 0.0
154 1 53.75527928 55.53724352 0.0
155 1 -55.328594848 -57.7981262608 0.0
156 1 -56.922838312 -50.133142536 0.0
157 1 53.57237904 56.85571264 0.0
158 1 57.735548 -37.02054928 0.0
159 1 50.77973632 56.73163928 0.0
160 1 54.38848528 -49.581768928 0.0
161 1 42.17175304 -48.197621464 0.0
162 1 54.3372452 -47.467584552 0.0
163 1 44.58307152 52.78031712 0.0
164 1 -33.4805484 -43.79229352 0.0
165 1 -51.970000192 51.63774504 0.0
166 1 -57.9424797208 -46.55657328 0.0
167 1 -52.618531528 -33.73009576 0.0
168 1 42.73772832 50.94547872 0.0
169 1 -47.364555808 48.47019768 0.0
170 1 35.9836088 53.89464296 0.0
171 1 -48.637153968 -56.468879216 0.0
172 1 -44.58680656 -17.14546768 0.0
173 1 -53.73602048 -42.66804648 0.0
174 1 53.51775408 -41.02322824 0.0
175 1 -34.07126832 -34.50546672 0.0
176 1 -49.378816192 -38.00239792 0.0
177 1 -48.939808928 -8.67498056 0.0
178 1 -54.776941112 -26.32432848 0.0
179 1 -39.39463408 -33.11428104 0.0
180 1 -53.388171536 50.15259976 0.0
181 1 -41.76790184 -39.31806576 0.0
182 1 -46.25765336 -40.45200056 0.0
183 1 55.58136368 -53.255822728 0.0
184 1 49.34326328 47.25140744 0.0
185 1 -56.138386536 -26.96967336 0.0
186 1 -53.790447016 -37.863968 0.0
187 1 54.4207 -53.06371328 0.0
188 1 -56.483329152 -55.077705208 0.0
189 1 -50.105701664 49.08752976 0.0
190 1 -52.218392024 -23.00807984 0.0
191 1 -52.803917904 -38.53055592 0.0
192 1 -26.88446776 -23.67676872 0.0
193 1 56.34471248 -49.145259472 0.0
194 1 -41.0334996 -24.63340584 0.0
195 1 -35.98454256 -17.62892192 0.0
196 1 -39.2272576 -26.997336 0.0
197 1 56.85057696 56.68985352 0.0
198 1 -44.81861248 -21.31003728 0.0
199 1 -51.35732524 -32.03345384 0.0
200 1 -47.447800512 46.87953752 0.0
201 1 55.0498208 -48.53906248 0.0
202 1 -51.356426496 -41.78237512 0.0
203 1 -56.099518776 -18.53501928 0.0
204 1 50.63733792 -36.9465488 0.0
205 1 -52.443089696 -44.4335532 0.0
206 1 -45.80057784 -19.39722992 0.0
207 1 -48.678344456 -41.39031264 0.0
208 1 -56.282512392 55.75527648 0.0
209 1 53.85962696 -48.521601168 0.0
210 1 -27.8692344 -23.14184096 0.0
211 1 -52.477930616 -45.83512696 0.0
212 1 -39.43023368 -18.9798392 0.0
213 1 56.88314184 -42.76772536 0.0
214 1 -42.83262168 -39.94298464 0.0
215 1 -57.013903256 -29.08849152 0.0
216 1 54.34775 -37.77969616 0.0
217 1 -45.97845912 -30.02166792 0.0
218 1 -53.600543576 -34.25696984 0.0
219 1 -57.125300824 -38.6150612 0.0
220 1 54.96893384 -54.239970752 0.0
221 1 -54.619906024 -33.42207168 0.0
222 1 -32.01769664 -35.81273072 0.0
223 1 -53.838920832 -46.1382488 0.0
224 1 56.209434 -46.21540072 0.0
225 1 -55.062730032 57.87105992 0.0
226 1 -42.91525944 -20.82588272 0.0
227 1 -54.778890336 -41.02579608 0.0
228 1 52.0080976 -52.522669392 0.0
229 1 -46.56509384 -57.4395542504 0.0
230 1 -57.146777304 -52.030519512 0.0
231 1 57.07864784 -54.154741808 0.0
232 1 -47.407216968 -51.636601184 0.0
233 1 -44.94642088 -14.8310268 0.0
234 1 48.21364712 -53.147273128 0.0
235 1 57.26598344 -48.384361792 0.0
236 1 47.18452688 -45.06839328 0.0
237 1 -49.476627552 -46.68531544 0.0
238 1 57.38935648 -53.0962198 0.0
239 1 -54.757880736 -35.93960536 0.0
240 1 53.62805448 -44.17186696 0.0
241 1 50.40950048 -39.07820616 0.0
242 1 54.87520768 -41.85205696 0.0
243 1 -46.806657552 -42.04838 0.0
244 1 -55.355323728 -30.34241448 0.0
245 1 -52.220633048 -53.124442696 0.0
246 1 -39.47143584 9.55458248 0.0
247 1 56.63476168 -40.4808304 0.0
248 1 -49.280094416 -26.86100704 0.0
249 1 34.89297712 -40.75383848 0.0
250 1 -55.965967752 -52.20570456 0.0
251 1 -51.836028976 55.8493528 0.0
252 1 -39.84657392 -40.350104 0.0
253 1 54.91874424 50.77973632 0.0
254 1 -49.823822864 -25.72088608 0.0
255 1 -55.02373388 56.50380184 0.0
256 1 -55.91016392 41.03326616 0.0
257 1 -50.536701936 -24.77043512 0.0
258 1 -47.236478952 -33.44296456 0.0
259 1 -55.384877232 -56.21579524 0.0
260 1 -57.543041704 -44.55622592 0.0
261 1 -49.829227 -43.56305544 0.0
262 1 56.53986832 -50.40827492 0.0
263 1 49.72108592 52.90590784 0.0
264 1 41.29331832 -46.04522296 0.0
265 1 -58.1215608824 37.32437144 0.0
266 1 57.17097336 -30.82119992 0.0
267 1 -55.420220048 -23.81928384 0.0
268 1 -55.96724 -37.89023 0.0
269 1 57.14471136 -27.72473504 0.0
270 1 -35.51579504 -46.4714844 0.0
271 1 -39.1688976 2.19923824 0.0
272 1 -58.1543615368 -41.51403584 0.0
273 1 -54.371374128 -54.189746136 0.0
274 1 47.90048736 54.82385088 0.0
275 1 -41.37653968 -33.04016384 0.0
276 1 -41.75704688 -23.76349168 0.0
277 1 -51.650199064 -35.55676376 0.0
278 1 -56.134137928 -41.70452288 0.0
279 1 -43.2599336 55.21894808 0.0
280 1 -55.234810328 54.00856168 0.0
281 1 57.19735208 -56.729444944 0.0
282 1 -53.114918344 -48.06337012 0.0
283 1 -45.35424056 -47.310829592 0.0
284 1 50.02525824 57.53980856 0.0
285 1 -53.545218296 -49.414730936 0.0
286 1 52.8140492 -45.08321672 0.0
287 1 53.89931176 -34.49612912 0.0
288 1 -49.235449016 -49.085522176 0.0
289 1 -24.3466248 -35.09221816 0.0
290 1 -50.47988264 -42.64038384 0.0
291 1 -52.036939112 -25.03247152 0.0
292 1 57.38468768 45.69226168 0.0
293 1 53.79368016 51.68151504 0.0
294 1 -50.516439344 -36.14094736 0.0
295 1 -48.527530544 -21.94721176 0.0
296 1 -51.181906752 -43.95313368 0.0
297 1 47.94705864 -58.3162880098 0.0
298 1 -49.734765504 -50.873964376 0.0
299 1 56.05968224 -52.26120492 0.0
300 1 -54.13053408 -57.7966182384 0.0
301 1 -46.883552688 -22.4896096 0.0
302 1 -58.085433708 -56.447881288 0.0
303 1 48.4288788 -49.887330216 0.0
304 1 46.41872696 58.0349348 0.0
305 1 -39.21103352 -17.78532672 0.0
306 1 47.73918032 -47.446866752 0.0
307 1 47.28980832 -43.14566472 0.0
308 1 -52.46610688 -19.61292848 0.0
309 1 -50.9441948 52.15131304 0.0
310 1 -41.76043176 -37.76265504 0.0
311 1 54.36304032 57.63738648 0.0
312 1 -45.78715504 -21.85383576 0.0
313 1 -57.096225872 -40.82492096 0.0
314 1 -56.833757608 -32.33144 0.0
315 1 -53.878022032 -15.9807188 0.0
316 1 54.6850708 -3.70621016 0.0
317 1 51.6205872 -14.83172712 0.0
318 1 -55.132621968 -17.92924248 0.0
319 1 -44.39246776 -3.67936456 0.0
320 1 -47.91466884 -23.00889688 0.0
321 1 -36.7107744 -23.56646832 0.0
322 1 -37.00105704 -15.71704832 0.0
323 1 51.38294528 -9.16555472 0.0
324 1 -53.303246064 -40.45410152 0.0
325 1 49.66400984 -15.3440112 0.0
326 1 -55.07030516 -11.64608816 0.0
327 1 -38.39982952 -19.71237392 0.0
328 1 -45.66168104 -12.477368 0.0
329 1 -57.00616472 -7.29931864 0.0
330 1 -38.97642632 -12.39613088 0.0
331 1 47.89826968 -33.314806 0.0
332 1 51.0019712 -10.38481184 0.0
333 1 -54.791321016 -39.60729792 0.0
334 1 -53.124606104 -20.88867808 0.0
335 1 -57.8201863408 -26.70401864 0.0
336 1 55.6124112 -0.50528088 0.0
337 1 -41.59247168 -20.8514444 0.0
338 1 -47.367823968 -18.01900016 0.0
339 1 -39.4180948 -28.21869408 0.0
340 1 -43.74945728 -22.20259512 0.0
341 1 -29.72181424 -33.33569888 0.0
342 1 -38.07791576 -25.3276564 0.0
343 1 53.68046176 -0.55978912 0.0
344 1 -49.356907848 3.3597852 0.0
345 1 -33.74048384 -8.249186 0.0
346 1 -36.428312 -19.8616588 0.0
347 1 -28.47956328 -27.94498568 0.0
348 1 -42.1143268 0.93562752 0.0
349 1 -45.82497232 -28.80171048 0.0
350 1 -40.03052464 -25.14709056 0.0
351 1 58.13029504 15.52691144 0.0
352 1 -47.69576048 -12.7353192 0.0
353 1 -39.59772688 -21.34073464 0.0
354 1 44.210618 -33.1490636 0.0
355 1 50.16964088 -16.60855568 0.0
356 1 -29.26275448 -24.69176584 0.0
357 1 -55.043097728 -10.52394208 0.0
358 1 -40.31695552 -17.02209464 0.0
359 1 -32.00298992 -20.36437184 0.0
360 1 -33.1578176 -21.73408104 0.0
361 1 -22.5450516 -21.31447264 0.0
362 1 -44.02433288 -10.7102272 0.0
363 1 57.2225636 -6.48076128 0.0
364 1 55.63260376 -24.19418848 0.0
365 1 -31.56528992 -15.14126856 0.0
366 1 -50.772126176 -12.29983688 0.0
367 1 -55.121790352 -8.95195712 0.0
368 1 -57.5473101544 -15.16274504 0.0
369 1 -49.672693808 6.95639528 0.0
370 1 -38.37601864 -15.86189784 0.0
371 1 48.76713336 -18.38655144 0.0
372 1 -49.762299752 -21.29766496 0.0
373 1 -37.02895312 5.1315948 0.0
374 1 -36.64517776 -12.34325672 0.0
375 1 -30.06660512 -23.04776464 0.0
376 1 50.7084204 -21.75567424 0.0
377 1 43.7921768 -8.56479688 0.0
378 1 51.97098064 -19.86936232 0.0
379 1 -52.907646968 -3.33574088 0.0
380 1 -49.720899168 -12.83406432 0.0
381 1 -56.863976416 -4.98406072 0.0
382 1 -49.910160648 -30.06310352 0.0
383 1 -43.58348144 -9.48221608 0.0
384 1 51.2745124 -22.82062752 0.0
385 1 50.65683016 -12.02204328 0.0
386 1 53.85087296 -19.107064 0.0
387 1 -55.527532416 -16.83907768 0.0
388 1 -48.72085388 -25.7992052 0.0
389 1 -43.12243744 3.33258944 0.0
390 1 40.97887464 -14.95253232 0.0
391 1 45.72342592 11.16520176 0.0
392 1 39.05124384 -29.69893712 0.0
393 1 -52.638770776 -18.40896168 0.0
394 1 -46.71852228 -16.06323984 0.0
395 1 -24.90524672 -22.59138944 0.0
396 1 -57.3522897096 -11.51302736 0.0
397 1 56.56437952 9.2658172 0.0
398 1 -37.9655144 -24.1073488 0.0
399 1 -52.965166584 -22.022146 0.0
400 1 -47.866836984 -3.46845152 0.0
401 1 -29.94008064 -36.93044144 0.0
402 1 50.11268152 -20.79121688 0.0
403 1 -41.90854944 -6.03687512 0.0
404 1 -36.18518424 -14.93572464 0.0
405 1 -57.145213256 -6.17939024 0.0
406 1 -38.79095824 -10.21545112 0.0
407 1 -54.004348088 -0.5859344 0.0
408 1 -49.407821112 -24.57329504 0.0
409 1 57.41491816 -25.47215576 0.0
410 1 -41.92885872 5.22742192 0.0
411 1 -47.136543288 -35.83607472 0.0
412 1 -34.34987896 -11.55948192 0.0
413 1 -42.04009288 -19.78544064 0.0
414 1 53.87199928 -7.3492748 0.0
415 1 -49.749600616 -11.75802264 0.0
416 1 54.43073792 -15.8085568 0.0
417 1 -53.46558024 -7.47439864 0.0
418 1 40.78558632 -10.60856408 0.0
419 1 -49.28671244 -15.44298976 0.0
420 1 42.38640112 -34.1102528 0.0
421 1 -45.40536392 -8.01609616 0.0
422 1 -51.917803008 7.13205888 0.0
423 1 57.46289008 -21.57896016 0.0
424 1 -56.078859336 -14.6705368 0.0
425 1 -56.3223606 -13.56087976 0.0
426 1 -32.7358748 -27.49211208 0.0
427 1 -55.995556272 -5.9836508 0.0
428 1 -52.98364336 -12.72341376 0.0
429 1 -30.98460792 -18.33776248 0.0
430 1 -50.223378768 -20.31056392 0.0
431 1 45.06337432 -16.63283344 0.0
432 1 -41.79474744 -1.22882816 0.0
433 1 -40.11573024 -12.48705576 0.0
434 1 -42.43600712 -12.34710848 0.0
435 1 -22.68581592 -4.82742248 0.0
436 1 -43.94823144 -30.62347624 0.0
437 1 -32.97269968 -19.49562488 0.0
438 1 -45.47656312 -1.47090544 0.0
439 1 -47.334768864 -34.7078592 0.0
440 1 55.11074864 -16.76717816 0.0
441 1 -45.97682504 -17.08500672 0.0
442 1 37.47564056 -12.33298536 0.0
443 1 -40.10370808 6.43605752 0.0
444 1 -49.7962536 -4.98289352 0.0
445 1 -52.45449324 -16.43581008 0.0
446 1 -43.50959768 8.50573656 0.0
447 1 56.43960584 -34.82376216 0.0
448 1 47.56386688 -14.4837848 0.0
449 1 -33.77024744 5.78452648 0.0
450 1 -54.10806548 -9.4875852 0.0
451 1 -39.43420216 -20.21800496 0.0
452 1 57.29236216 -13.7624552 0.0
453 1 -38.20385664 -29.11545384 0.0
454 1 -53.119668848 -29.70278888 0.0
455 1 -38.45702232 -13.42268328 0.0
456 1 -49.338862936 -42.35173528 0.0
457 1 46.47521944 -18.4540156 0.0
458 1 52.66978328 -12.24311096 0.0
459 1 56.31728328 -21.35345712 0.0
460 1 -55.131804928 -14.06254232 0.0
461 1 -51.054401824 0.05672592 0.0
462 1 -54.197613064 16.14459368 0.0
463 1 -39.27674688 -32.02073136 0.0
464 1 -51.074547696 -11.05851968 0.0
465 1 -37.63192864 -38.05562224 0.0
466 1 -51.51688148 -15.65880504 0.0
467 1 -52.14967896 4.87936288 0.0
468 1 -46.55517264 -5.75581336 0.0
469 1 -39.26192344 -29.58700264 0.0
470 1 -46.17233104 -18.22571128 0.0
471 1 -49.57326004 -6.07387536 0.0
472 1 49.31641768 -4.53037008 0.0
473 1 -49.102493264 2.00910136 0.0
474 1 -43.11788536 5.00647096 0.0
475 1 -45.61452616 0.81598952 0.0
476 1 -41.29121736 -17.66545528 0.0
477 1 53.25560096 -15.8324844 0.0
478 1 56.34167776 -9.74810424 0.0
479 1 41.52850912 -37.3375608 0.0
480 1 -44.8198964 -20.05051176 0.0
481 1 -37.65457232 -10.30684288 0.0
482 1 52.54535976 -20.90711984 0.0
483 1 49.70731296 -29.12350752 0.0
484 1 45.21744472 -22.70285704 0.0
485 1 -3.50113312 -17.40972176 0.0
486 1 54.3979396 -22.1353644 0.0
487 1 55.54728144 -22.2976052 0.0
488 1 -41.65596736 -9.1671888 0.0
489 1 -56.38614808 -0.78750984 0.0
490 1 56.58538912 -26.623832 0.0
491 1 56.67246224 -24.59944032 0.0
492 1 -37.60566664 -22.86206312 0.0
493 1 -50.032646616 -27.73652376 0.0
494 1 57.85355192 -8.6892204 0.0
495 1 -55.581141912 -33.95758304 0.0
496 1 55.1572032 -43.99550304 0.0
497 1 -42.9722188 -19.09737624 0.0
498 1 -58.0848244296 -25.64606856 0.0
499 1 -33.20252136 -20.61368576 0.0
500 1 51.41317576 -8.00955984 0.0
501 1 -50.788630384 -13.40307432 0.0
502 1 -54.331339168 -28.6500912 0.0
503 1 -45.77198144 5.17991688 0.0
504 1 -51.70164924 3.83296808 0.0
505 1 -42.53895416 -14.51156416 0.0
506 1 43.33451768 11.97698936 0.0
507 1 -40.67960456 -15.57138176 0.0
508 1 -46.05666152 -15.02968424 0.0
509 1 -40.44219608 1.7286232 0.0
510 1 -38.4469844 10.01014064 0.0
511 1 54.5263316 7.98049656 0.0
512 1 -50.914232776 -2.43547952 0.0
513 1 -50.918948264 -21.22856672 0.0
514 1 44.81125912 -18.2357492 0.0
515 1 -51.850397208 -14.30135144 0.0
516 1 -56.147525712 -11.01229856 0.0
517 1 54.1329852 -24.33693704 0.0
518 1 -35.21220632 -20.54517112 0.0
519 1 -31.444368 -13.40015632 0.0
520 1 57.30006568 -5.389546 0.0
521 1 -52.127023608 -7.57839616 0.0
522 1 31.14603168 -11.54675944 0.0
523 1 -52.668522704 -24.02517792 0.0
524 1 -47.952381072 -31.3614968 0.0
525 1 -36.14678336 -32.70097552 0.0
526 1 -41.29822056 -25.77971296 0.0
527 1 -35.7606736 4.8771452 0.0
528 1 55.56899136 1.23209632 0.0
529 1 -42.70352936 -23.02967304 0.0
530 1 -44.94210224 -18.18754384 0.0
531 1 57.33706592 1.23011208 0.0
532 1 -29.30442352 -26.00428224 0.0
533 1 -39.23145952 -8.15265856 0.0
534 1 54.67188144 -2.47423056 0.0
535 1 -53.246240016 -17.47380104 0.0
536 1 49.26132584 -3.3767096 0.0
537 1 -37.74981584 -14.8345284 0.0
538 1 -56.484496352 -17.42489536 0.0
539 1 -53.413604824 -8.54670528 0.0
540 1 -49.847995576 -16.93583856 0.0
541 1 -53.514696016 0.930842 0.0
542 1 -57.8693044512 -8.06932048 0.0
543 1 52.39315688 -8.77045752 0.0
544 1 -40.55132928 -23.64245304 0.0
545 1 -32.56558032 -25.08884728 0.0
546 1 -35.61290608 -9.15773448 0.0
547 1 49.47725784 -12.11308488 0.0
548 1 53.44737192 4.05450264 0.0
549 1 -35.27068304 -22.93804784 0.0
550 1 58.23989512 -27.58957328 0.0
551 1 -40.07732936 -10.34010808 0.0
552 1 -35.70628208 -24.22955464 0.0
553 1 -47.889562368 -20.93991816 0.0
554 1 -50.006337928 4.26541568 0.0
555 1 -51.459887104 -39.07330392 0.0
556 1 -44.13043136 -26.27122088 0.0
557 1 -57.3942949032 -16.24824104 0.0
558 1 49.81971432 -32.5304476 0.0
559 1 48.27083992 -13.64129984 0.0
560 1 -51.201749152 -27.56319456 0.0
561 1 -45.7822528 -20.7213016 0.0
562 1 48.67422424 -20.75433336 0.0
563 1 -24.74557376 12.81107048 0.0
564 1 -52.463258912 -32.50967144 0.0
565 1 51.75551552 -11.62402808 0.0
566 1 42.52996672 -31.88603648 0.0
567 1 54.84054184 -1.29255728 0.0
568 1 -55.130696088 -20.20026352 0.0
569 1 -46.791799096 -20.13793504 0.0
570 1 -47.578608616 -5.03051528 0.0
571 1 -43.49057232 -17.80715336 0.0
572 1 -34.77812464 -26.22850136 0.0
573 1 -50.822070664 -17.76676824 0.0
574 1 -40.6559104 -11.41451568 0.0
575 1 50.10894648 -13.09061488 0.0
576 1 55.6532632 7.64469312 0.0
577 1 -35.10459048 -19.43819864 0.0
578 1 -55.646365048 -22.68955096 0.0
579 1 -43.57776216 -8.17635272 0.0
580 1 46.93206152 -38.80799936 0.0
581 1 -46.29068512 -4.68315656 0.0
582 1 -47.716209824 4.123134 0.0
583 1 -35.10108888 -14.29960064 0.0
584 1 -50.334834696 -39.71433016 0.0
585 1 -42.12004608 -7.17559544 0.0
586 1 57.47724664 -10.14623616 0.0
587 1 -50.134846648 -23.6877404 0.0
588 1 -44.90615248 -22.52696 0.0
589 1 -46.28484912 4.19398304 0.0
590 1 -38.73259824 -23.1432416 0.0
591 1 -32.82178072 -28.66666544 0.0
592 1 -52.076402144 -0.96025544 0.0
593 1 -45.49932352 -6.90270408 0.0
594 1 53.22537048 2.08777064 0.0
595 1 -29.9141688 -4.43734424 0.0
596 1 -35.52244808 -21.85897144 0.0
597 1 -46.50860136 -11.60325192 0.0
598 1 -37.47599072 -20.48482688 0.0
599 1 -55.098002816 -15.77774272 0.0
600 1 -46.859438336 -21.32077552 0.0
601 1 -45.32914576 -26.37335088 0.0
602 1 -52.37203056 -27.79826864 0.0
603 1 -47.091594416 1.18319064 0.0
604 1 -38.1750268 -17.39139672 0.0
605 1 -54.46873028 -4.69132696 0.0
606 1 57.37383272 -39.30452624 0.0
607 1 -50.980413016 -7.2640692 0.0
608 1 -51.582454776 -23.96576744 0.0
609 1 -52.957451392 -26.33366608 0.0
610 1 55.1828816 -21.24257312 0.0
611 1 51.68851824 -0.47014816 0.0
612 1 -51.775264544 -21.9538648 0.0
613 1 -39.18360432 -30.83660696 0.0
614 1 -53.56706828 -27.46865136 0.0
615 1 56.45116112 -4.25491088 0.0
616 1 -48.2225762 3.06926912 0.0
617 1 -36.9687256 -25.91522488 0.0
618 1 -58.2630875007 -10.83418384 0.0
619 1 -32.82609936 -16.64508904 0.0
620 1 -32.69583984 -10.24323048 0.0
621 1 -57.3983871064 -12.71127488 0.0
622 1 -57.69422912 9.74682032 0.0
623 1 -47.619974184 -15.43820424 0.0
624 1 -56.934510312 -25.99961344 0.0
625 1 57.09382144 -20.51727504 0.0
626 1 58.1866708 -24.61753192 0.0
627 1 54.26359488 -5.01790952 0.0
628 1 -43.00875216 -15.6895024 0.0
629 1 56.25565512 -28.58379424 0.0
630 1 56.39128376 -19.08640456 0.0
631 1 -45.82100384 2.91052992 0.0
632 1 -40.12355048 -14.55194928 0.0
633 1 -41.21756704 -10.2094984 0.0
634 1 50.26873616 -18.84351024 0.0
635 1 -43.45765728 -28.26993416 0.0
636 1 57.67905552 -17.17488112 0.0
637 1 -44.47288784 -12.33415256 0.0
638 1 42.10533936 16.857286 0.0
639 1 -50.057951512 -0.45065592 0.0
640 1 36.46472864 19.31879408 0.0
641 1 51.003722 5.74005616 0.0
642 1 -50.959099944 -1.14805792 0.0
643 1 57.08798544 25.86561888 0.0
644 1 45.23518616 35.13015216 0.0
645 1 -46.994903568 5.030632 0.0
646 1 57.86662456 3.6486672 0.0
647 1 -57.055443904 24.66865528 0.0
648 1 48.62345104 38.33154832 0.0
649 1 -47.53883044 12.45892624 0.0
650 1 49.21837288 -26.1406112 0.0
651 1 55.49895936 18.91237504 0.0
652 1 36.4901736 39.7437436 0.0
653 1 40.48771688 -0.8281284 0.0
654 1 30.80696008 34.35279696 0.0
655 1 17.75147792 27.62867448 0.0
656 1 -53.310541064 10.48133928 0.0
657 1 51.205064 13.59869704 0.0
658 1 43.90224376 32.713698 0.0
659 1 38.2719044 33.93155448 0.0
660 1 43.50306136 26.55648456 0.0
661 1 47.89745264 21.35228992 0.0
662 1 -46.57268064 -1.20011504 0.0
663 1 37.46618624 47.00851312 0.0
664 1 -33.810866 8.9810204 0.0
665 1 -57.901716428 18.52264696 0.0
666 1 -40.06927568 10.68384848 0.0
667 1 47.9946804 -9.19391768 0.0
668 1 51.83698608 9.64060512 0.0
669 1 26.82132224 39.0072404 0.0
670 1 34.06088024 12.4195916 0.0
671 1 49.04446008 -0.99282032 0.0
672 1 53.90748216 20.18707416 0.0
673 1 35.47109128 15.42910008 0.0
674 1 -54.503641232 -1.63769832 0.0
675 1 -35.37596448 17.75381232 0.0
676 1 -56.503264928 6.80897792 0.0
677 1 42.18505912 34.02691472 0.0
678 1 41.03361632 22.56104224 0.0
679 1 -56.513279504 30.458084 0.0
680 1 56.53940144 22.55007056 0.0
681 1 52.48816696 22.80790504 0.0
682 1 -56.686713752 23.53285296 0.0
683 1 57.77079744 13.26604504 0.0
684 1 41.98780232 49.78376456 0.0
685 1 50.30830424 35.74993536 0.0
686 1 41.7320688 35.18197584 0.0
687 1 49.19292792 13.33981208 0.0
688 1 -56.058795168 21.3825204 0.0
689 1 54.12796624 26.84419936 0.0
690 1 49.597246 29.3947648 0.0
691 1 -58.1846387048 25.39045176 0.0
692 1 56.15644312 16.14891232 0.0
693 1 -56.680422544 9.19473472 0.0
694 1 48.006936 24.54236424 0.0
695 1 -52.018929216 0.7289164 0.0
696 1 53.7425568 33.51743192 0.0
697 1 -53.42017616 23.68995808 0.0
698 1 43.17636208 27.65015096 0.0
699 1 51.03792096 32.45551336 0.0
700 1 50.22368224 14.26516824 0.0
701 1 45.82100384 2.10142688 0.0
702 1 37.87599016 35.07774488 0.0
703 1 43.37466936 24.3553788 0.0
704 1 36.10814904 42.84767856 0.0
705 1 57.6555948 18.67951864 0.0
706 1 -57.046152992 0.2672888 0.0
707 1 57.50992824 8.47142088 0.0
708 1 -55.824654848 12.78690944 0.0
709 1 46.53369616 23.36232504 0.0
710 1 28.38595384 15.08419248 0.0
711 1 52.944192 26.96838944 0.0
712 1 44.91957528 4.13387224 0.0
713 1 50.32697944 -1.19497936 0.0
714 1 50.9879648 15.1625116 0.0
715 1 46.06856696 22.30951064 0.0
716 1 43.44096632 13.9281976 0.0
717 1 -46.950293184 3.00122136 0.0
718 1 47.58581024 17.36980352 0.0
719 1 44.93673312 -3.4035552 0.0
720 1 32.33062296 34.03893688 0.0
721 1 43.57939624 29.60497752 0.0
722 1 38.85620472 -13.07170624 0.0
723 1 58.3238168 6.25864312 0.0
724 1 47.38575216 27.5610936 0.0
725 1 36.53732848 27.09584768 0.0
726 1 -50.638400072 16.3944912 0.0
727 1 49.9071376 -10.904566 0.0
728 1 -44.26967832 -15.7361904 0.0
729 1 -57.7206743704 29.79383048 0.0
730 1 46.2088644 31.94708104 0.0
731 1 41.9310764 9.57559208 0.0
732 1 -56.87018592 14.14319584 0.0
733 1 40.00507968 -6.90247064 0.0
734 1 52.06283928 14.65898152 0.0
735 1 38.28042496 36.27809336 0.0
736 1 -40.99883376 18.19968272 0.0
737 1 44.3250036 18.40942856 0.0
738 1 53.79869912 10.99338992 0.0
739 1 41.99632288 38.44500016 0.0
740 1 52.67888744 24.6594344 0.0
741 1 -56.75048956 18.33192648 0.0
742 1 55.3760532 2.49243888 0.0
743 1 57.20423856 10.62058624 0.0
744 1 39.60613072 29.98490112 0.0
745 1 35.33079384 -14.72878008 0.0
746 1 40.33983264 16.88168048 0.0
747 1 47.6182584 18.47992744 0.0
748 1 49.38644968 -5.76818568 0.0
749 1 47.80512712 32.87558864 0.0
750 1 30.82668576 32.15939472 0.0
751 1 55.6532632 21.44508232 0.0
752 1 48.78709248 -11.20255216 0.0
753 1 -57.457211652 17.47391776 0.0
754 1 -49.628083424 -10.35283056 0.0
755 1 38.94619584 25.7151668 0.0
756 1 -54.899695536 15.02058008 0.0
757 1 -47.232393752 8.46815272 0.0
758 1 47.29716168 22.43393416 0.0
759 1 28.01875272 29.0300148 0.0
760 1 -49.038460672 -0.9168356 0.0
761 1 33.51579784 32.06251712 0.0
762 1 51.8785384 19.165424 0.0
763 1 -57.8643753656 12.18265 0.0
764 1 35.05731888 27.11032096 0.0
765 1 57.17739296 6.36789304 0.0
766 1 57.36426168 -0.11485248 0.0
767 1 55.72644664 31.58688312 0.0
768 1 43.15266792 20.10350264 0.0
769 1 -47.25648476 6.21323904 0.0
770 1 40.22124512 33.1613192 0.0
771 1 45.87889696 29.69776992 0.0
772 1 49.3031116 36.3629488 0.0
773 1 52.60138536 3.25625456 0.0
774 1 35.76137392 23.7741132 0.0
775 1 55.57179264 4.56678672 0.0
776 1 57.24520728 27.45090992 0.0
777 1 45.93492256 -9.16999008 0.0
778 1 45.35634152 19.0527892 0.0
779 1 52.49878848 7.55493544 0.0
780 1 -52.44906576 15.3510144 0.0
781 1 55.72399552 13.75405136 0.0
782 1 -52.665102808 5.8902748 0.0
783 1 55.97412648 40.48935096 0.0
784 1 33.17018992 21.36547928 0.0
785 1 -49.624570152 -14.34010248 0.0
786 1 -44.55750984 5.24796464 0.0
787 1 -57.940514156 1.40624256 0.0
788 1 -50.681539784 -5.95692192 0.0
789 1 -57.2999676352 2.37396808 0.0
790 1 -50.799380296 -3.8009868 0.0
791 1 51.79531704 -5.49716184 0.0
792 1 -58.236936268 -5.39724952 0.0
793 1 -45.48543384 7.4689128 0.0
794 1 -38.7236108 6.43500704 0.0
795 1 -51.793671288 1.88059264 0.0
796 1 44.82094688 20.26480968 0.0
797 1 -40.6722512 9.49622248 0.0
798 1 -35.11474512 -1.60618392 0.0
799 1 -55.982845464 -2.92978872 0.0
800 1 39.81867784 24.73611944 0.0
801 1 45.24032184 28.3273604 0.0
802 1 -54.930602992 21.8873344 0.0
803 1 -55.505355616 10.9547556 0.0
804 1 47.64475384 0.68502968 0.0
805 1 -47.847052944 7.3685336 0.0
806 1 56.8939968 17.84963944 0.0
807 1 56.17488488 11.4858316 0.0
808 1 -55.619321024 14.00955144 0.0
809 1 54.89598384 -13.7356096 0.0
810 1 -50.930958752 13.33969536 0.0
811 1 46.27002568 15.4298004 0.0
812 1 50.75931032 26.40253088 0.0
813 1 -47.57583068 10.49803024 0.0
814 1 46.67270968 21.25739656 0.0
815 1 54.61410504 0.23192264 0.0
816 1 50.2467928 3.18365472 0.0
817 1 33.65177664 29.929926 0.0
818 1 44.7597856 29.81133848 0.0
819 1 44.50755368 8.2830348 0.0
820 1 44.53054752 -13.40342448 0.0
821 1 -41.81412296 -11.26196264 0.0
822 1 51.4069896 35.17847424 0.0
823 1 57.76367752 9.62858296 0.0
824 1 55.86697752 30.498936 0.0
825 1 29.18782024 25.81251128 0.0
826 1 34.90114752 19.3089896 0.0
827 1 55.03838224 20.09696632 0.0
828 1 40.82503768 13.60394944 0.0
829 1 41.96702616 45.95861672 0.0
830 1 43.34852408 10.85192528 0.0
831 1 52.19683384 17.849406 0.0
832 1 54.96029656 -7.0609764 0.0
833 1 -43.92745528 4.12920344 0.0
834 1 36.44908816 30.73249272 0.0
835 1 -55.227527 6.33334392 0.0
836 1 33.03199344 17.91453576 0.0
837 1 40.8041448 29.75041064 0.0
838 1 -56.940322968 -1.8721888 0.0
839 1 46.49681264 19.23650648 0.0
840 1 50.56392104 28.80159376 0.0
841 1 50.76724728 -15.66394072 0.0
842 1 -52.1099358 21.68120688 0.0
843 1 57.95836648 32.80170488 0.0
844 1 42.91234144 25.56996712 0.0
845 1 -55.186920112 -0.76941824 0.0
846 1 47.70393088 23.4770608 0.0
847 1 28.80813008 42.42620264 0.0
848 1 48.75791248 11.49376856 0.0
849 1 49.31676784 16.41468376 0.0
850 1 54.07474192 9.2080408 0.0
851 1 -56.27030348 15.10718632 0.0
852 1 51.56934712 -1.59042672 0.0
853 1 47.60320152 28.70705056 0.0