ITEM: TIMESTEP
0
ITEM: NUMBER OF ATOMS
9250
ITEM: BOX BOUNDS pp pp pp
-5.8359999999999999e+01 5.8359999999999999e+01
-5.8359999999999999e+01 5.8359999999999999e+01
-5.0000000000000000e-01 5.0000000000000000e-01
ITEM: ATOMS id type xs ys zs c_002[1] c_002[2]
1 1 0.854323 0.232521 0.5 -0.631888 0.200377
2 1 0.928475 0.0110393 0.5 -0.232782 -0.535804
3 1 0.962532 0.866818 0.5 0.459265 -0.399592
4 1 0.863461 0.0577839 0.5 0.306163 -0.229314
5 1 0.107042 0.877196 0.5 0.251273 0.243006
6 1 0.0779776 0.886608 0.5 -0.385358 0.678086
7 1 0.350224 0.887408 0.5 0.368303 0.231884
8 1 0.882077 0.22074 0.5 0.0679485 0.787604
9 1 0.109753 0.859622 0.5 0.604872 0.743963
10 1 0.936933 0.871872 0.5 0.261247 0.583426
11 1 0.958051 0.0600756 0.5 -0.354853 -0.364467
12 1 0.889398 0.971989 0.5 -0.589421 0.722118
13 1 0.854084 0.951215 0.5 -0.262192 0.624134
14 1 0.954122 0.244133 0.5 -0.778778 -0.12157
15 1 0.740208 0.822345 0.5 -0.171741 0.532267
16 1 0.113537 0.868894 0.5 0.367913 0.595365
17 1 0.551854 0.0609139 0.5 -0.464611 -0.461056
18 1 0.0179862 0.872346 0.5 -0.368327 0.879919
19 1 0.718591 0.116867 0.5 -0.263515 -0.553745
20 1 0.170518 0.797669 0.5 -0.207095 -0.772184
21 1 0.11639 0.0545735 0.5 -0.471355 0.00542025
22 1 0.130175 0.0973458 0.5 -0.641193 -0.562885
23 1 0.159311 0.661614 0.5 0.484536 -0.730863
24 1 0.716205 0.161419 0.5 -0.778153 0.233403
25 1 0.0629137 0.945543 0.5 -0.543502 -0.104929
26 1 0.937911 0.0559836 0.5 0.474465 -0.692968
27 1 0.696841 0.993772 0.5 0.785288 -0.0146225
28 1 0.520331 0.296512 0.5 0.534552 0.202155
29 1 0.785751 0.262451 0.5 0.513736 -0.575846
30 1 0.0484122 0.896246 0.5 -0.208315 0.503067
31 1 0.930062 0.148156 0.5 0.198038 -0.532343
32 1 0.979973 0.962424 0.5 0.527637 0.137857
33 1 0.573445 0.266838 0.5 0.361249 -0.225379
34 1 0.827231 0.0286873 0.5 -0.656607 -0.66848
35 1 0.160884 0.848545 0.5 -0.0961243 -0.0503362
36 1 0.978146 0.148259 0.5 0.195819 -0.423336
37 1 0.116062 0.724739 0.5 -0.106737 -0.0579996
38 1 0.723172 0.0103661 0.5 -0.587163 0.278576
39 1 0.806338 0.213852 0.5 -0.418992 -0.226795
40 1 0.859814 0.70176 0.5 -0.0348123 0.456925
41 1 0.2381 0.898499 0.5 -0.126422 -0.622035
42 1 0.843916 0.126831 0.5 0.612281 -0.353162
43 1 0.766984 0.0704527 0.5 0.230263 -0.269668
44 1 0.944906 0.902617 0.5 -0.115268 0.528869
45 1 0.847052 0.864133 0.5 0.134928 -0.666326
46 1 0.648744 0.843113 0.5 0.282619 0.269668
47 1 0.0575056 0.0035123 0.5 -0.58716 0.113884
48 1 0.933918 0.901124 0.5 -0.277061 0.418129
49 1 0.698247 0.941384 0.5 0.558195 -0.528829
50 1 0.790159 0.815463 0.5 0.0262223 0.691733
51 1 0.0647693 0.782384 0.5 -0.0728665 -0.00207518
52 1 0.883073 0.0143895 0.5 -0.933819 -0.285271
53 1 0.964609 0.902759 0.5 -0.773156 0.353448
54 1 0.780334 0.273667 0.5 0.787693 -0.17339
55 1 0.988788 0.99019 0.5 0.276944 -0.136483
56 1 0.0442156 0.953066 0.5 0.274706 -0.636523
57 1 0.766897 0.0224777 0.5 0.301527 -0.808108
58 1 0.0653085 0.829315 0.5 -0.131081 0.666958
59 1 0.727037 0.990866 0.5 -0.443912 0.246971
60 1 0.772004 0.118581 0.5 0 0
61 1 0.98048 0.952688 0.5 -0.254172 0.186807
62 1 0.890128 0.815301 0.5 -0.176057 -0.4018
63 1 0.0266482 0.134063 0.5 -0.720311 -0.515802
64 1 0.670081 0.125229 0.5 0.00870815 0.688451
65 1 0.784554 0.0268286 0.5 -0.594445 -0.729352
66 1 0.841028 0.0846249 0.5 0.147886 0.614694
67 1 0.00353295 0.00023964 0.5 0.376554 -0.397272
68 1 0.776431 0.0702181 0.5 0.860933 -0.0200942
69 1 0.953897 0.871109 0.5 -0.441245 -0.413804
70 1 0.871399 0.963162 0.5 -0.142372 0.13124
71 1 0.775397 0.0890649 0.5 0.0523503 -0.303757
72 1 0.908769 0.02994 0.5 -0.217254 0.0643364
73 1 0.320048 0.0777775 0.5 -0.061609 0.213253
74 1 0.605234 0.138096 0.5 0.66137 -0.162689
75 1 0.866519 0.111698 0.5 -0.266377 -0.502056
76 1 0.874433 0.130175 0.5 0.014429 -0.305389
77 1 0.170921 0.909109 0.5 0.193982 -0.233193
78 1 0.653986 0.0706526 0.5 0.262658 -0.307857
79 1 0.107208 0.012022 0.5 0.25257 0.108134
80 1 0.907647 0.978168 0.5 -0.120353 0.441449
81 1 0.0212212 0.882654 0.5 -0.102501 0.944375
82 1 0.880871 0.139132 0.5 0.140873 -0.145682
83 1 0.741135 0.100195 0.5 0.184216 -0.776342
84 1 0.231341 0.272848 0.5 -0.151384 0.360415
85 1 0.66763 0.830867 0.5 -0.00756826 -0.487382
86 1 0.911516 0.930712 0.5 -0.300788 0.628579
87 1 0.830658 0.821336 0.5 0.6131 0.632652
88 1 0.0362797 0.858239 0.5 -0.836127 0.437161
89 1 0.745713 0.0912714 0.5 -0.118437 -0.330604
90 1 0.771108 0.946028 0.5 -0.239309 -0.613396
91 1 0.843015 0.997439 0.5 0.0285738 0.505534
92 1 0.935636 0.763726 0.5 0.327323 0.191331
93 1 0.934172 0.0286437 0.5 0.42311 -0.269152
94 1 0.894437 0.682732 0.5 0.239566 0.450754
95 1 0.550731 0.989085 0.5 -0.30399 0.641652
96 1 0.8193 0.820758 0.5 0.704726 0.507149
97 1 0.789682 0.309606 0.5 0.219387 0.676007
98 1 0.863496 0.869061 0.5 -0.403286 -0.104675
99 1 0.968486 0.150502 0.5 0.441482 0.446269
100 1 0.00814502 0.113889 0.5 -0.435321 0.289612
101 1 0.0562363 0.815952 0.5 -0.659154 0.276115
102 1 0.806805 0.915539 0.5 -0.0681831 -0.904577
103 1 0.628108 0.955069 0.5 -0.464987 -0.59549
104 1 0.615327 0.349883 0.5 0.1389 -0.428371
105 1 0.776625 0.0216497 0.5 -0.229639 -0.545341
106 1 0.825874 0.2445 0.5 -0.00942812 0.665802
107 1 0.801639 0.184562 0.5 -0.455406 -0.778587
108 1 0.938695 0.144271 0.5 0.060353 -0.658263
109 1 0.801121 0.955807 0.5 0.802844 0.14166
110 1 0.117925 0.941611 0.5 0.509286 0.190775
111 1 0.991644 0.874584 0.5 0.357759 -0.0081309
112 1 0.843866 0.0651279 0.5 0.060133 0.666744
113 1 0.0552701 0.825426 0.5 -0.362627 0.465528
114 1 0.988681 0.323128 0.5 0.234678 0.85169
115 1 0.769607 0.00160522 0.5 -0.26044 0.18286
116 1 0.840264 0.986723 0.5 0.365967 0.164114
117 1 0.956192 0.274894 0.5 -0.268744 0.701405
118 1 0.863449 0.954675 0.5 -0.261069 -0.123434
119 1 0.481762 0.0811673 0.5 -0.0672178 0.529554
120 1 0.876939 0.238771 0.5 0.70235 0.290693
121 1 0.0900899 0.948771 0.5 -0.541438 0.623986
122 1 0.709393 0.373156 0.5 0.541034 0.493941
123 1 0.105446 0.849094 0.5 0.709214 0.0149939
124 1 0.791833 0.118536 0.5 0 0
125 1 0.764147 0.939392 0.5 -0.240849 -0.477471
126 1 0.0759843 0.877029 0.5 -0.175652 0.756964
127 1 0.0236349 0.794465 0.5 -0.263303 -0.756534
128 1 0.865202 0.979649 0.5 0.0764611 0.33032
129 1 0.944516 0.0640127 0.5 -0.040238 -0.730469
130 1 0.754191 0.132101 0.5 -0.718232 0.456687
131 1 0.00234358 0.0183597 0.5 0.0256401 0.0177596
132 1 0.774819 0.0308785 0.5 -0.484657 -0.672928
133 1 0.935661 0.978152 0.5 0 0
134 1 0.00943174 0.029093 0.5 0.595586 -0.296586
135 1 0.816209 0.914234 0.5 0.0777394 -0.604164
136 1 0.230706 0.204359 0.5 0.562687 -0.465972
137 1 0.95609 0.837247 0.5 -0.330723 0.839951
138 1 0.797257 0.126587 0.5 0.658424 -0.50288
139 1 0.968748 0.982871 0.5 -0.108241 -0.273014
140 1 0.837422 0.0437755 0.5 -0.753774 0.46277
141 1 0.894105 0.0822527 0.5 0.552896 0.0971445
142 1 0.983786 0.0207096 0.5 -0.353739 0.328589
143 1 0.945934 0.970452 0.5 -0.0253959 0.22858
144 1 0.600585 0.146612 0.5 0.628251 -0.236114
145 1 0.942469 0.864262 0.5 0.00635064 0.427007
146 1 0.959945 0.491395 0.5 0.301973 0.224376
147 1 0.140255 0.963765 0.5 -0.164744 -0.0573125
148 1 0.969191 0.962359 0.5 0.0988063 0.0468398
149 1 0.856318 0.0193093 0.5 -0.440284 0.0804651
150 1 0.900826 0.0754608 0.5 -0.153938 0.25486
151 1 0.927891 0.175529 0.5 0.366676 -0.49451
152 1 0.924727 0.137392 0.5 0.316251 -0.195613
153 1 0.0738992 0.918354 0.5 -0.0581066 0.075104
154 1 0.712487 0.949319 0.5 0.419687 -0.195575
155 1 0.964891 0.840686 0.5 -0.482435 0.533313
156 1 0.725448 0.019979 0.5 -0.506274 0.128835
157 1 0.648523 0.827643 0.5 -0.0787068 -0.0851323
158 1 0.827688 0.334302 0.5 0.407903 0.203073
159 1 0.899258 0.138475 0.5 -0.653122 -0.451619
160 1 0.658747 0.824065 0.5 -0.147579 -0.408357
161 1 0.704374 0.830577 0.5 -0.182546 -0.819011
162 1 0.368559 0.968319 0.5 0.0774352 0.888214
163 1 0.950895 0.0421807 0.5 -0.209988 -0.519831
164 1 0.919217 0.509362 0.5 -0.464603 0.0432194
165 1 0.778713 0.911703 0.5 -0.275541 -0.106967
166 1 0.876315 0.899722 0.5 -0.26727 -0.12327
167 1 0.745703 0.138246 0.5 -0.519024 0.228799
168 1 0.875667 0.0431414 0.5 -0.697061 0.20059
169 1 0.0746706 0.685203 0.5 -0.923703 0.226312
170 1 0.933888 0.0929589 0.5 -0.121283 0.535535
171 1 0.199773 0.945794 0.5 0.247346 0.626577
172 1 0.0547163 0.939047 0.5 -0.564841 -0.309002
173 1 0.74593 0.935965 0.5 -0.728143 -0.317635
174 1 0.809307 0.874569 0.5 -0.309561 -0.171806
175 1 0.819514 0.186019 0.5 -0.187874 -0.35988
176 1 0.0124895 0.796366 0.5 -0.349595 -0.246683
177 1 0.806353 0.340172 0.5 -0.558453 -0.585471
178 1 0.915517 0.140572 0.5 -0.193 -0.321244
179 1 0.795026 0.0764573 0.5 -0.986269 0.0890821
180 1 0.104677 0.908961 0.5 0.571595 -0.371247
181 1 0.909055 0.919165 0.5 -0.456594 0.401011
182 1 0.795874 0.945172 0.5 0.596831 -0.236136
183 1 0.69533 0.0159579 0.5 0.198946 0.243708
184 1 0.120641 0.149873 0.5 -0.347361 0.356058
185 1 0.873186 0.932887 0.5 0.154499 0.7296
186 1 0.74435 0.334154 0.5 0.110248 -0.183829
187 1 0.823594 0.976424 0.5 0.576174 0.379303
188 1 0.0338181 0.107146 0.5 -0.192247 0.724725
189 1 0.76124 0.294233 0.5 0.429474 -0.329603
190 1 0.776453 0.922692 0.5 -0.490624 -0.511058
191 1 0.608998 0.120395 0.5 -0.158656 0.853881
192 1 0.744961 0.946018 0.5 -0.0997896 -0.661959
193 1 0.680413 0.867474 0.5 -0.0929415 -0.187789
194 1 0.90437 0.944383 0.5 -0.733733 -0.234382
195 1 0.855416 0.941611 0.5 0.166033 -0.221314
196 1 0.622768 0.173652 0.5 -0.313222 -0.410935
197 1 0.252258 0.98116 0.5 0.0328088 0.562965
198 1 0.952027 0.963079 0.5 -0.103501 0.57846
199 1 0.0120664 0.702478 0.5 -0.785745 -0.244417
200 1 0.855267 0.0443715 0.5 -0.720485 -0.223116
201 1 0.0414077 0.0286847 0.5 -0.0723406 0.0641297
202 1 0.76554 0.897167 0.5 -0.123153 0.0150326
203 1 0.00311925 0.0761786 0.5 -0.274187 -0.503399
204 1 0.829269 0.109265 0.5 0.603399 -0.314167
205 1 0.825137 0.100879 0.5 0.506852 0.478828
206 1 0.756174 0.835963 0.5 0.658754 0.171292
207 1 0.270837 0.917259 0.5 -0.0986801 -0.232086
208 1 0.0494398 0.995644 0.5 -0.500263 0.119911
209 1 0.869318 0.797189 0.5 0.389074 -0.278914
210 1 0.861312 0.99011 0.5 0.253409 0.287396
211 1 0.822408 0.342445 0.5 0.293608 -0.020904
212 1 0.727125 0.189713 0.5 0.00290553 0.651011
213 1 0.759493 0.150681 0.5 0.099538 0.385699
214 1 0.903232 0.934776 0.5 -0.485691 0.119312
215 1 0.838322 0.301001 0.5 -0.259387 -0.143379
216 1 0.842318 0.938404 0.5 -0.178241 -0.229058
217 1 0.710007 0.219956 0.5 0.552613 0.01512
218 1 0.85854 0.139728 0.5 0.333057 0.393191
219 1 0.920967 0.965207 0.5 -0.289843 -0.456685
220 1 0.492529 0.713636 0.5 0.27701 0.335411
221 1 0.856592 0.78784 0.5 0.0496641 -0.330155
222 1 0.851693 0.106672 0.5 0.31264 -0.583486
223 1 0.873761 0.117817 0.5 -0.561201 -0.539105
224 1 0.960639 0.987658 0.5 -0.362014 -0.485793
225 1 0.688813 0.159347 0.5 -0.775474 0.155714
226 1 0.935283 0.278364 0.5 -0.183925 -0.280301
227 1 0.635099 0.147165 0.5 0.0620414 0.399246
228 1 0.943228 0.756718 0.5 -0.393511 -0.25317
229 1 0.796109 0.837255 0.5 0.550374 0.325052
230 1 0.952715 0.14072 0.5 0.568125 -0.443742
231 1 0.725623 0.123489 0.5 -0.445377 -0.73354
232 1 0.00717336 0.822154 0.5 0.597235 -0.280147
233 1 0.86592 0.0370552 0.5 -0.876578 0.206912
234 1 0.886347 0.888779 0.5 0.11166 -0.402826
235 1 0.0525473 0.601354 0.5 -0.827084 -0.25026
236 1 0.906404 0.905204 0.5 -0.168879 0.191569
237 1 0.656871 0.120783 0.5 -0.45689 0.21661
238 1 0.747446 0.250132 0.5 0.159148 -0.720838
239 1 0.763983 0.0338164 0.5 -0.12418 -0.192265
240 1 0.0397145 0.922229 0.5 0.140093 -0.100631
241 1 0.678772 0.287825 0.5 -0.288254 0.233478
242 1 0.702724 0.841722 0.5 -0.639642 -0.571448
243 1 0.87473 0.0096308 0.5 -0.819795 -0.262048
244 1 0.776248 0.39397 0.5 -0.536544 0.0734045
245 1 0.063165 0.479462 0.5 0.230986 0.743505
246 1 0.719999 0.0575416 0.5 0.194791 -0.66623
247 1 0.78135 0.0501465 0.5 -0.324291 -0.501171
248 1 0.831613 0.881614 0.5 0.375527 -0.248718
249 1 0.87101 0.988079 0.5 0.24094 -0.0397453
250 1 0.54896 0.040281 0.5 0.348008 0.109403
251 1 0.693379 0.902123 0.5 0.355372 0.657247
252 1 0.75036 0.313719 0.5 0.383345 0.412441
253 1 0.898446 0.841925 0.5 -0.559729 0.0231841
254 1 0.94704 0.409324 0.5 -0.302709 -0.123125
255 1 0.857057 0.861567 0.5 0.321389 -0.122849
256 1 0.917458 0.78853 0.5 0.00376685 0.235656
257 1 0.865866 0.834033 0.5 0.461918 0.454604
258 1 0.830052 0.902027 0.5 0.0769982 -0.257739
259 1 0.784729 0.102371 0.5 -0.630262 -0.32119
260 1 0.876489 0.890203 0.5 -0.0621098 -0.53178
261 1 0.108035 0.937557 0.5 -0.202134 0.00803683
262 1 0.792086 0.798473 0.5 0.351766 0.717968
263 1 0.914064 0.720945 0.5 0.00755287 0.37722
264 1 0.895626 0.905149 0.5 -0.013877 -0.339169
265 1 0.808343 0.674963 0.5 0.259921 0.867765
266 1 0.735749 0.233562 0.5 0.162787 -0.359569
267 1 0.0262933 0.865617 0.5 -0.565587 0.517141
268 1 0.0496478 0.832945 0.5 -0.0453989 0.666138
269 1 0.0939289 0.848964 0.5 0.740914 -0.00603261
270 1 0.0391597 0.89099 0.5 -0.564045 0.340547
271 1 0.745051 0.261107 0.5 0.62782 -0.488353
272 1 0.818924 0.868764 0.5 -0.466677 -0.0735016
273 1 0.556381 0.197324 0.5 -0.370146 0.588894
274 1 0.0833743 0.764569 0.5 0.742442 0.136634
275 1 0.835802 0.0721519 0.5 0.314585 0.522234
276 1 0.794333 0.392545 0.5 -0.00811533 0.0896099
277 1 0.700914 0.297369 0.5 0.242167 0.0118973
278 1 0.997959 0.95645 0.5 -0.752591 -0.300715
279 1 0.924542 0.978632 0.5 0.331568 -0.134856
280 1 0.059416 0.0375049 0.5 -0.225621 -0.740837
281 1 0.784597 0.929638 0.5 0.235716 -0.662326
282 1 0.67752 0.0966008 0.5 -0.346345 0.620337
283 1 0.771129 0.359811 0.5 -0.211983 0.594343
284 1 0.938726 0.728657 0.5 -0.375873 -0.485892
285 1 0.74893 0.0526786 0.5 -0.110814 0.607428
286 1 0.0797338 0.996604 0.5 0.395789 0.526245
287 1 0.128762 0.0308861 0.5 -0.461304 0.587637
288 1 0.926824 0.835916 0.5 -0.385983 0.701923
289 1 0.854378 0.99694 0.5 0.0914912 0.676604
290 1 0.576911 0.257567 0.5 -0.00235769 -0.312399
291 1 0.697498 0.0961726 0.5 -0.615861 -0.0403821
292 1 0.0101706 0.949688 0.5 0.535085 0.00831192
293 1 0.0872769 0.193337 0.5 -0.0620082 -0.0833674
294 1 0.11836 0.262698 0.5 0.369746 0.254417
295 1 0.627956 0.386275 0.5 0.297916 -0.319859
296 1 0.152731 0.403582 0.5 -0.409584 0.168066
297 1 0.148475 0.26226 0.5 0.141838 -0.888978
298 1 0.642267 0.290159 0.5 0.761825 0.163324
299 1 0.825638 0.121786 0.5 -0.122877 -0.387408
300 1 0.783255 0.137268 0.5 0.594607 -0.703317
301 1 0.915987 0.315984 0.5 0.354627 -0.364167
302 1 0.602656 0.169175 0.5 -0.290854 0.106988
303 1 0.121884 0.409544 0.5 0.063708 -0.849716
304 1 0.734609 0.204942 0.5 -0.296488 -0.397222
305 1 0.822061 0.352201 0.5 -0.813763 0.343979
306 1 0.826381 0.0386358 0.5 -0.669969 0.104228
307 1 0.793722 0.591072 0.5 -0.415209 0.375283
308 1 0.0230542 0.686824 0.5 0.282133 -0.879558
309 1 0.112088 0.217749 0.5 -0.555378 0.324031
310 1 0.912289 0.18673 0.5 -0.0422948 -0.363979
311 1 0.893575 0.0418417 0.5 -0.174663 0.480724
312 1 0.715322 0.363195 0.5 0.889583 0.27755
313 1 0.0387068 0.405021 0.5 0.185639 0.516497
314 1 0.26536 0.40744 0.5 0.368353 -0.153352
315 1 0.710972 0.102619 0.5 -0.231962 -0.135017
316 1 0.922151 0.37509 0.5 0.144614 -0.495119
317 1 0.130312 0.321174 0.5 -0.0140501 -0.417906
318 1 0.657277 0.282591 0.5 0.0977474 -0.426569
319 1 0.584868 0.228673 0.5 0.16782 -0.368927
320 1 0.1214 0.563246 0.5 0.753849 -0.328353
321 1 0.0709133 0.472975 0.5 0.362371 0.471239
322 1 0.889527 0.14474 0.5 -0.379489 -0.15183
323 1 0.0230884 0.50656 0.5 0.158863 0.607288
324 1 0.631804 0.169742 0.5 -0.077592 -0.0319987
325 1 0.987702 0.502313 0.5 0.466957 -0.147925
326 1 0.779972 0.355259 0.5 -0.0958119 0.0472645
327 1 0.719177 0.30131 0.5 -0.11976 0.0938283
328 1 0.8995 0.542156 0.5 0.913075 -0.0610704
329 1 0.834974 0.174239 0.5 -0.255288 0.130388
330 1 0.148368 0.442373 0.5 0.0702818 -0.14666
331 1 0.902809 0.116036 0.5 -0.663686 -0.291333
332 1 0.829895 0.0607724 0.5 0.117657 0.750268
333 1 0.747062 0.582826 0.5 -0.00764393 -0.70528
334 1 0.734708 0.150158 0.5 -0.336384 -0.147284
335 1 0.715862 0.898499 0.5 -0.232586 0.178787
336 1 0.842152 0.168155 0.5 -0.648764 0.279602
337 1 0.835774 0.118053 0.5 0.400482 -0.709644
338 1 0.00509107 0.246918 0.5 0.246201 -0.828319
339 1 0.782121 0.159071 0.5 0.155053 0.338402
340 1 0.808143 0.281769 0.5 0.825463 0.26552
341 1 0.497947 0.292335 0.5 0.61284 0.133889
342 1 0.915987 0.973536 0.5 -0.329365 -0.112363
343 1 0.786243 0.283271 0.5 0.574603 -0.19901
344 1 0.76917 0.601875 0.5 0.00845347 0.4056
345 1 0.0999913 0.831598 0.5 -0.280889 -0.219451
346 1 0.775518 0.343906 0.5 -0.228654 -0.145373
347 1 0.0835037 0.325263 0.5 -0.241881 0.374561
348 1 0.170881 0.418422 0.5 0.0595683 0.416779
349 1 0.590937 0.149063 0.5 -0.0940186 -0.0496923
350 1 0.931589 0.115331 0.5 -0.43615 0.176899
351 1 0.240708 0.266357 0.5 -0.111433 0.748474
352 1 0.81742 0.333587 0.5 0.0673539 0.306547
353 1 0.579055 0.168296 0.5 0.618177 -0.520724
354 1 0.0648523 0.287636 0.5 -0.0905223 -0.146582
355 1 0.0912959 0.479296 0.5 0.226643 -0.152541
356 1 0.371184 0.189007 0.5 0.502921 -0.540557
357 1 0.658499 0.0987303 0.5 -0.492378 0.675588
358 1 0.661486 0.185155 0.5 -0.656469 -0.0733916
359 1 0.789484 0.351565 0.5 0.146008 -0.0755674
360 1 0.786017 0.224581 0.5 -0.133059 0.593197
361 1 0.207037 0.190663 0.5 -0.159716 -0.475501
362 1 0.884674 0.115513 0.5 -0.372259 -0.628203
363 1 0.947214 0.174138 0.5 0.653767 0.692479
364 1 0.906352 0.145417 0.5 -0.692696 -0.327664
365 1 0.820211 0.415148 0.5 -0.432939 0.19487
366 1 0.676214 0.337658 0.5 0.309464 0.433547
367 1 0.726065 0.391495 0.5 -0.119163 -0.787531
368 1 0.842444 0.144929 0.5 0.180556 0.813852
369 1 0.812945 0.29164 0.5 0.785043 0.573473
370 1 0.889239 0.238766 0.5 0.876066 0.164814
371 1 0.894497 0.514353 0.5 0.0302986 -0.166826
372 1 0.629233 0.339231 0.5 0.269398 -0.501605
373 1 0.677624 0.318239 0.5 0.00414787 0.9302
374 1 0.746718 0.177223 0.5 -0.471685 0.559968
375 1 0.194288 0.316651 0.5 -0.151678 0.237394
376 1 0.578943 0.236853 0.5 0.212341 0.312768
377 1 0.628568 0.37518 0.5 0.0512458 -0.617658
378 1 0.768496 0.337255 0.5 -0.0246407 -0.448567
379 1 0.816203 0.208355 0.5 -0.294775 -0.448121
380 1 0.89164 0.267424 0.5 0.404611 0.688375
381 1 0.0866797 0.466221 0.5 0.458939 0.524645
382 1 0.699474 0.352547 0.5 -0.157132 0.42876
383 1 0.595897 0.0889925 0.5 0.0240092 0.412141
384 1 0.788725 0.210414 0.5 -0.239825 -0.639437
385 1 0.577243 0.313643 0.5 -0.112831 -0.206335
386 1 0.0501773 0.192232 0.5 0.502138 0.0232548
387 1 0.803111 0.160054 0.5 -0.16753 0.268489
388 1 0.777014 0.25317 0.5 -0.00829539 -0.747434
389 1 0.59019 0.406605 0.5 -0.16997 -0.184942
390 1 0.298084 0.508776 0.5 0.201904 -0.284145
391 1 0.486123 0.300528 0.5 0.00357485 0.740371
392 1 0.979495 0.394923 0.5 0.641939 -0.188647
393 1 0.778026 0.403578 0.5 -0.685588 0.268472
394 1 0.553095 0.388853 0.5 0.839899 0.204636
395 1 0.699234 0.471925 0.5 -0.524027 0.549914
396 1 0.990564 0.211712 0.5 -0.19795 -0.0660911
397 1 0.101318 0.412473 0.5 0.253922 -0.70807
398 1 0.193146 0.45043 0.5 0.820811 -0.0271016
399 1 0.046441 0.249735 0.5 0.449107 0.22108
400 1 0.809234 0.416879 0.5 -0.521566 0.00691545
401 1 0.928652 0.549757 0.5 -0.373164 0.189399
402 1 0.149059 0.280899 0.5 0.0408564 0.427918
403 1 0.716138 0.38347 0.5 0.0474913 -0.160652
404 1 0.744396 0.126526 0.5 -0.82338 -0.220987
405 1 0.986739 0.34656 0.5 -0.142276 -0.559697
406 1 0.773345 0.510419 0.5 0.562204 0.494929
407 1 0.709574 0.353998 0.5 0 0
408 1 0.943891 0.273026 0.5 -0.370898 0.210547
409 1 0.556476 0.26072 0.5 -0.406687 -0.832672
410 1 0.849089 0.187175 0.5 -0.330946 0.0247807
411 1 0.837926 0.278061 0.5 -0.266164 0.550293
412 1 0.111034 0.293766 0.5 0.56954 0.0578609
413 1 0.911878 0.397403 0.5 0.268513 0.185176
414 1 0.0706201 0.404642 0.5 0.241387 0.0507051
415 1 0.873428 0.497194 0.5 0.889686 0.286458
416 1 0.060754 0.376453 0.5 0.0945043 -0.815512
417 1 0.850248 0.2812 0.5 0.452822 0.6623
418 1 0.155806 0.269392 0.5 0.181229 -0.596894
419 1 0.621221 0.241179 0.5 -0.337827 0.492548
420 1 0.761146 0.553573 0.5 -0.875021 -0.0855437
421 1 0.0991126 0.486422 0.5 0.288039 -0.162285
422 1 0.817197 0.301274 0.5 0.438743 0.808107
423 1 0.710509 0.607942 0.5 -0.196788 0.54037
424 1 0.989339 0.427246 0.5 -0.573834 -0.0423063
425 1 0.963764 0.310296 0.5 0.133043 0.705672
426 1 0.824771 0.385231 0.5 -0.238115 -0.45701
427 1 0.871246 0.368613 0.5 0.0789337 0.345999
428 1 0.080256 0.257365 0.5 -0.451492 0.33123
429 1 0.512392 0.0492498 0.5 -0.649042 0.363807
430 1 0.88515 0.17131 0.5 -0.0438042 0.345266
431 1 0.92449 0.0894492 0.5 -0.22099 0.0907428
432 1 0.0351454 0.972225 0.5 0.264594 -0.675283
433 1 0.767029 0.227478 0.5 -0.70404 0.163669
434 1 0.652103 0.157926 0.5 -0.717738 -0.200506
435 1 0.601497 0.264628 0.5 0.565082 -0.12723
436 1 0.660424 0.153139 0.5 -0.907163 -0.205318
437 1 0.622343 0.330296 0.5 -0.0830587 -0.815268
438 1 0.9832 0.226771 0.5 -0.393073 -0.379511
439 1 0.668213 0.267356 0.5 -0.515244 -0.472436
440 1 0.0554785 0.333955 0.5 0.679915 0.425346
441 1 0.598871 0.299266 0.5 0.337787 0.00528323
442 1 0.1605 0.378083 0.5 0.146548 0.179329
443 1 0.972803 0.973157 0.5 0.755586 -0.0515049
444 1 0.83883 0.465221 0.5 -0.244512 0.0455345
445 1 0.971974 0.218468 0.5 -0.335852 -0.527711
446 1 0.722883 0.218041 0.5 0.290667 -0.537822
447 1 0.877422 0.427463 0.5 -0.466828 0.546246
448 1 0.00901372 0.32169 0.5 0.265465 -0.618147
449 1 0.83613 0.235266 0.5 -0.237667 0.570012
450 1 0.108594 0.249152 0.5 -0.75669 0.445037
451 1 0.951927 0.815621 0.5 -0.898453 0.045373
452 1 0.904342 0.229881 0.5 -0.231689 -0.0970683
453 1 0.147089 0.429288 0.5 -0.50589 0.333201
454 1 0.586048 0.0688362 0.5 -0.150949 0.277317
455 1 0.996938 0.131314 0.5 -0.852349 0.0379264
456 1 0.953874 0.0111925 0.5 -0.237299 0.357712
457 1 0.559759 0.301735 0.5 -0.125144 -0.0522114
458 1 0.763078 0.329122 0.5 -0.116609 0.0241595
459 1 0.0668735 0.254109 0.5 0.0304491 0.0150636
460 1 0.687494 0.218733 0.5 -0.079283 -0.412318
461 1 0.0322713 0.473002 0.5 0.15278 -0.413357
462 1 0.624181 0.193736 0.5 -0.159406 -0.148648
463 1 0.240319 0.142621 0.5 -0.559037 -0.745346
464 1 0.153224 0.130709 0.5 0.232142 -0.271462
465 1 0.220153 0.243568 0.5 0.269559 -0.149512
466 1 0.877908 0.403603 0.5 -0.0149401 -0.4931
467 1 0.163293 0.430801 0.5 -0.265697 -0.197464
468 1 0.81107 0.190552 0.5 -0.73509 -0.451651
469 1 0.811649 0.117798 0.5 -0.521601 0.403593
470 1 0.957308 0.119841 0.5 0.389109 0.193513
471 1 0.789714 0.252312 0.5 0.108042 -0.666811
472 1 0.949154 0.314737 0.5 0.0593531 -0.328723
473 1 0.0313383 0.596715 0.5 -0.176302 -0.326484
474 1 0.750868 0.269646 0.5 0.531694 -0.54262
475 1 0.756367 0.233306 0.5 -0.189023 0.436562
476 1 0.681272 0.194215 0.5 -0.432302 0.466746
477 1 0.976658 0.295543 0.5 -0.579659 0.513919
478 1 0.036177 0.329738 0.5 0.603516 0.191939
479 1 0.208691 0.213632 0.5 -0.162579 0.903919
480 1 0.0612148 0.322991 0.5 0.816262 -0.102927
481 1 0.439756 0.158904 0.5 0.283585 0.706677
482 1 0.032727 0.391367 0.5 0.443126 0.194362
483 1 0.720364 0.478092 0.5 0.0572838 -0.360523
484 1 0.884949 0.274175 0.5 -0.151281 0.364617
485 1 0.707167 0.113141 0.5 -0.254425 -0.424954
486 1 0.802804 0.0595328 0.5 -0.124961 0.674606
487 1 0.847215 0.249162 0.5 -0.762997 0.204595
488 1 0.0874409 0.428133 0.5 -0.194798 -0.669898
489 1 0.701092 0.26251 0.5 0.583561 0.0518792
490 1 0.816899 0.241184 0.5 -0.468372 0.215173
491 1 0.638129 0.334999 0.5 -0.245853 -0.0491503
492 1 0.670542 0.248271 0.5 -0.270976 0.25341
493 1 0.910105 0.260465 0.5 0.488452 0.376235
494 1 0.909136 0.133695 0.5 -0.597693 -0.570671
495 1 0.809804 0.427139 0.5 -0.702863 -0.318122
496 1 0.824764 0.1327 0.5 -0.403703 0.31122
497 1 0.99397 0.170517 0.5 -0.0863805 0.225563
498 1 0.831444 0.0806063 0.5 0.396788 0.237458
499 1 0.100557 0.384126 0.5 0.421689 -0.706113
500 1 0.578608 0.304101 0.5 -0.268215 -0.902372
501 1 0.0884148 0.24109 0.5 -0.277202 0.607008
502 1 0.71668 0.250198 0.5 -0.621987 -0.0345104
503 1 0.667122 0.115949 0.5 -0.210835 -0.0456893
504 1 0.0171609 0.148212 0.5 -0.370158 0.178403
505 1 0.12855 0.534864 0.5 0.164973 -0.328092
506 1 0.849693 0.396686 0.5 -0.0520393 -0.783431
507 1 0.843144 0.208049 0.5 -0.0361082 -0.182356
508 1 0.11234 0.0886997 0.5 0.0848581 0.143292
509 1 0.727714 0.226192 0.5 0.598624 -0.525914
510 1 0.735136 0.092202 0.5 0.106783 -0.65183
511 1 0.596097 0.428284 0.5 -0.178768 -0.426704
512 1 0.880704 0.378103 0.5 -0.389471 0.0791025
513 1 0.744333 0.419313 0.5 -0.0897029 -0.154891
514 1 0.0215313 0.427906 0.5 -0.559713 0.6575
515 1 0.121968 0.0908668 0.5 -0.162663 -0.524242
516 1 0.717397 0.271796 0.5 0.283397 0.170175
517 1 0.124751 0.512678 0.5 0.350854 -0.224278
518 1 0.85582 0.255158 0.5 0.00894241 -0.0299351
519 1 0.923833 0.306268 0.5 0.470665 0.257468
520 1 0.803144 0.00609223 0.5 -0.290827 -0.585702
521 1 0.85876 0.33565 0.5 0.421546 0.705399
522 1 0.658383 0.25567 0.5 0.216074 0.0658688
523 1 0.83278 0.292633 0.5 0.308545 -0.00339886
524 1 0.0835967 0.406052 0.5 0.711012 -0.0278503
525 1 0.923979 0.26081 0.5 0.0783147 0.0555376
526 1 0.819591 0.2822 0.5 0.812546 0.117564
527 1 0.875299 0.255528 0.5 0.798636 0.295491
528 1 0.78966 0.146847 0.5 0.461062 -0.372355
529 1 0.88804 0.132135 0.5 0.0661929 0.210224
530 1 0.808517 0.264873 0.5 -0.233556 0.0609736
531 1 0.6053 0.100318 0.5 -0.118172 0.453958
532 1 0.053213 0.475822 0.5 0.335683 0.354375
533 1 0.946898 0.855842 0.5 -0.278178 0.0433329
534 1 0.808747 0.201005 0.5 -0.488966 -0.685269
535 1 0.91943 0.0132092 0.5 0.232138 -0.806938
536 1 0.153358 0.356648 0.5 -0.0421967 0.433587
537 1 0.705014 0.334713 0.5 0.220127 0.0524801
538 1 0.132451 0.75136 0.5 0.902167 -0.232491
539 1 0.95267 0.305666 0.5 0.0225828 0.550431
540 1 0.169317 0.381675 0.5 -0.190791 0.610333
541 1 0.234735 0.243218 0.5 -0.0507917 0.146488
542 1 0.689381 0.0911941 0.5 -0.73616 -0.0550572
543 1 0.765218 0.28551 0.5 0.685023 -0.418333
544 1 0.733112 0.162516 0.5 -0.838806 -0.0534576
545 1 0.791761 0.319215 0.5 -0.0128099 0.947793
546 1 0.618577 0.375544 0.5 0.506184 -0.0461833
547 1 0.823138 0.293489 0.5 0.674676 0.407632
548 1 0.649285 0.244283 0.5 0.31572 0.318958
549 1 0.851587 0.343962 0.5 -0.0692917 0.958983
550 1 0.864123 0.228248 0.5 -0.246217 -0.0846235
551 1 0.727532 0.0859177 0.5 -0.100741 -0.67106
552 1 0.844101 0.417125 0.5 0.567388 -0.532989
553 1 0.846499 0.0171598 0.5 -0.450174 0.580909
554 1 0.686495 0.0720666 0.5 -0.412337 0.621464
555 1 0.825471 0.205304 0.5 0.0159775 -0.648624
556 1 0.839288 0.255872 0.5 -0.244717 0.299067
557 1 0.960692 0.0395288 0.5 0.0197501 -0.775093
558 1 0.108192 0.898458 0.5 -0.279521 -0.20982
559 1 0.941938 0.163353 0.5 0.728984 0.000902
560 1 0.773634 0.423383 0.5 -0.179288 0.884037
561 1 0.961487 0.111003 0.5 0.579427 -0.192267
562 1 0.551555 0.35254 0.5 -0.104304 0.16058
563 1 0.840409 0.360665 0.5 -0.479612 0.0952919
564 1 0.168603 0.466665 0.5 0.122963 -0.248867
565 1 0.705441 0.210893 0.5 0 0
566 1 0.909845 0.213133 0.5 -0.0262171 0.960022
567 1 0.0385922 0.383755 0.5 0.0880347 0.877469
568 1 0.959978 0.328782 0.5 -0.309584 0.850467
569 1 0.0500522 0.216592 0.5 -0.377607 -0.559704
570 1 0.922858 0.2897 0.5 0.302605 -0.705571
571 1 0.00217947 0.228316 0.5 -0.180668 -0.779606
572 1 0.725986 0.135184 0.5 -0.524058 -0.46496
573 1 0.238382 0.528133 0.5 -0.507315 0.0157197
574 1 0.852609 0.14754 0.5 0.324297 0.542032
575 1 0.0284082 0.5264 0.5 -0.372936 0.334122
576 1 0.77877 0.334765 0.5 0.229998 0.0286408
577 1 0.689713 0.169094 0.5 -0.870231 0.129501
578 1 0.564521 0.269222 0.5 0.359661 -0.593159
579 1 0.0252639 0.240456 0.5 0.139833 -0.673247
580 1 0.947072 0.153925 0.5 0.514976 -0.491904
581 1 0.133291 0.363544 0.5 0.0185321 -0.633681
582 1 0.900439 0.88511 0.5 -0.199269 0.274948
583 1 0.188449 0.208415 0.5 -0.185316 0.397126
584 1 0.688903 0.111473 0.5 -0.826011 -0.285436
585 1 0.0511522 0.342382 0.5 0.471154 0.633651
586 1 0.132261 0.805436 0.5 -0.499592 -0.378924
587 1 0.768475 0.38575 0.5 0.318914 -0.35825
588 1 0.845216 0.928213 0.5 0.0324498 -0.341705
589 1 0.252075 0.472998 0.5 0.599863 -0.0720107
590 1 0.526885 0.124596 0.5 0.159776 -0.632872
591 1 0.933095 0.201504 0.5 -0.0164564 0.666449
592 1 0.755149 0.286467 0.5 0.467061 -0.688475
593 1 0.533955 0.131262 0.5 -0.166029 -0.140939
594 1 0.865019 0.328643 0.5 0.18458 0.900344
595 1 0.933949 0.455462 0.5 0.574938 0.695321
596 1 0.882716 0.349177 0.5 0.461753 0.468357
597 1 0.825415 0.912403 0.5 0.289201 -0.464446
598 1 0.880284 0.666824 0.5 0.0299225 0.738421
599 1 0.555382 0.174289 0.5 -0.849603 -0.259702
600 1 0.762579 0.48818 0.5 0.434234 0.183569
601 1 0.95519 0.234609 0.5 0.402479 0.340495
602 1 0.980391 0.269456 0.5 0.556294 0.140541
603 1 0.244732 0.563389 0.5 0.560915 0.349591
604 1 0.897923 0.792119 0.5 0.61685 0.522394
605 1 0.681794 0.892049 0.5 0.240115 0.189862
606 1 0.767028 0.581312 0.5 0.433978 -0.57704
607 1 0.336891 0.580667 0.5 0.779403 -0.219064
608 1 0.937137 0.518277 0.5 -0.379383 -0.198834
609 1 0.246549 0.12416 0.5 0.0330564 0.492076
610 1 0.856041 0.60768 0.5 -0.19638 0.361354
611 1 0.875575 0.439162 0.5 -0.447954 -0.365175
612 1 0.790922 0.418763 0.5 -0.158734 0.822729
613 1 0.922153 0.242324 0.5 -0.253547 -0.455087
614 1 0.7362 0.682603 0.5 -0.263222 0.609276
615 1 0.829615 0.653146 0.5 0.546554 0.76706
616 1 0.0443615 0.145322 0.5 -0.17616 -0.316687
617 1 0.941657 0.446818 0.5 0.10434 0.418277
618 1 0.00752321 0.442305 0.5 0.20955 -0.24722
619 1 0.666024 0.427934 0.5 -0.416564 0.379438
620 1 0.89115 0.456898 0.5 0.832097 0.0833911
621 1 0.905274 0.464712 0.5 0.693806 0.187699
622 1 0.799659 0.576931 0.5 0.706393 0.233509
623 1 0.0283087 0.675007 0.5 0.562766 -0.438519
624 1 0.182585 0.511878 0.5 -0.088107 -0.553167
625 1 0.00978224 0.760805 0.5 0.726154 0.514425
626 1 0.113163 0.36081 0.5 0.0363083 -0.355432
627 1 0.0255892 0.311471 0.5 0.368655 0.623801
628 1 0.0373423 0.454716 0.5 0.681665 0.142156
629 1 0.86318 0.414031 0.5 0.898191 0.107196
630 1 0.775774 0.695554 0.5 0.577046 0.389838
631 1 0.63953 0.101885 0.5 -0.678302 0.204732
632 1 0.688326 0.10162 0.5 -0.791661 0.197022
633 1 0.910828 0.071738 0.5 -0.139602 -0.393067