ITEM: TIMESTEP
0
ITEM: NUMBER OF ATOMS
9322
ITEM: BOX BOUNDS pp pp pp
-5.8359999999999999e+01 5.8359999999999999e+01
-5.8359999999999999e+01 5.8359999999999999e+01
-5.0000000000000000e-01 5.0000000000000000e-01
ITEM: ATOMS id type xs ys zs c_002[1] c_002[2]
1 1 0.590437 0.641869 0.5 -0.901663 0.38533
2 1 0.30269 0.340018 0.5 -0.348626 -0.245187
3 1 0.456313 0.816359 0.5 -0.585532 -0.407686
4 1 0.292916 0.0183633 0.5 0.0922215 0.571488
5 1 0.238815 0.39013 0.5 0.083291 0.211022
6 1 0.474404 0.406161 0.5 0.822491 0.0703059
7 1 0.306018 0.275858 0.5 -0.762262 -0.000678894
8 1 0.199823 0.806848 0.5 -0.418582 -0.338289
9 1 0.310475 0.877287 0.5 0.48314 -0.0187419
10 1 0.675322 0.549326 0.5 0.343595 0.259141
11 1 0.391077 0.885455 0.5 0.59749 -0.567464
12 1 0.973032 0.254146 0.5 -0.0267362 -0.326876
13 1 0.162406 0.581587 0.5 -0.0624104 0.70283
14 1 0.922108 0.838529 0.5 -0.26617 0.402214
15 1 0.342711 0.696668 0.5 0.521712 0.649552
16 1 0.333092 0.955028 0.5 -0.531294 0.279611
17 1 0.24169 0.792519 0.5 -0.328428 -0.28261
18 1 0.447127 0.73369 0.5 0.240345 0.266409
19 1 0.0507595 0.13129 0.5 0.201967 0.571905
20 1 0.242124 0.87387 0.5 -0.102558 -0.433224
21 1 0.456082 0.496911 0.5 -0.0896742 0.00903505
22 1 0.957393 0.256753 0.5 -0.290013 0.634574
23 1 0.190835 0.470928 0.5 -0.201051 0.447098
24 1 0.115775 0.49911 0.5 -0.630524 0.326018
25 1 0.488329 0.109695 0.5 0.48696 -0.26937
26 1 0.764561 0.254107 0.5 0.647965 0.391636
27 1 0.336892 0.37549 0.5 0.331178 -0.790706
28 1 0.361821 0.241309 0.5 0.586892 0.557513
29 1 0.93022 0.0937388 0.5 -0.136718 0.203076
30 1 0.949511 0.434571 0.5 -0.426377 0.272438
31 1 0.815562 0.225856 0.5 -0.0648955 0.731394
32 1 0.813088 0.409152 0.5 -0.371545 0.220679
33 1 0.470213 0.875829 0.5 0.41419 0.40046
34 1 0.330873 0.76074 0.5 -0.117718 0.855896
35 1 0.0916245 0.759911 0.5 -0.0242085 0.125479
36 1 0.155508 0.995524 0.5 -0.441353 0.710369
37 1 0.340216 0.6876 0.5 0.539314 0.644796
38 1 0.361537 0.313146 0.5 0.401191 -0.449192
39 1 0.590133 0.753959 0.5 0.0284742 0.101107
40 1 0.533799 0.852312 0.5 0.198378 -0.833237
41 1 0.797714 0.229099 0.5 0.184387 0.181402
42 1 0.416962 0.154398 0.5 0.181705 -0.0321007
43 1 0.44061 0.298122 0.5 -0.0436977 -0.871837
44 1 0.927434 0.248281 0.5 -0.00230199 -0.380503
45 1 0.711086 0.335476 0.5 0.11873 0.46172
46 1 0.530615 0.731255 0.5 -0.765135 0.124275
47 1 0.728407 0.856276 0.5 -0.560991 0.418588
48 1 0.508271 0.876044 0.5 0.316124 -0.240098
49 1 0.857954 0.397075 0.5 -0.503235 0.398797
50 1 0.152737 0.547418 0.5 -0.0149533 -0.0765665
51 1 0.0120238 0.918748 0.5 -0.350591 0.368002
52 1 0.630082 0.890556 0.5 -0.313977 -0.295683
53 1 0.475474 0.384966 0.5 0.672748 -0.0241388
54 1 0.481868 0.292185 0.5 -0.378106 -0.295313
55 1 0.295401 0.567756 0.5 -0.635874 -0.269579
56 1 0.284973 0.0908814 0.5 0.00359798 0.254997
57 1 0.68095 0.225876 0.5 -0.502969 0.403613
58 1 0.790909 0.550877 0.5 0.281254 -0.211332
59 1 0.713099 0.0375438 0.5 0.403667 0.803741
60 1 0.913015 0.683795 0.5 -0.706297 0.198438
61 1 0.47844 0.747562 0.5 0.150052 -0.437246
62 1 0.517537 0.291113 0.5 -0.571789 0.0666944
63 1 0.731124 0.0331649 0.5 -0.0440481 0.794912
64 1 0.882609 0.838357 0.5 0.233482 -0.590886
65 1 0.0615539 0.043304 0.5 -0.452079 -0.436859
66 1 0.904152 0.688579 0.5 -0.653838 0.375161
67 1 0.15778 0.802678 0.5 0.270693 -0.0677601
68 1 0.400329 0.0311859 0.5 0.73742 -0.242078
69 1 0.84954 0.14337 0.5 -0.60432 0.28119
70 1 0.33568 0.831962 0.5 0.556963 0.0122817
71 1 0.910884 0.0923348 0.5 0.372585 -0.676488
72 1 0.190503 0.750657 0.5 -0.449199 -0.239105
73 1 0.883642 0.828497 0.5 -0.170155 -0.595932
74 1 0.900819 0.679222 0.5 -0.119879 -0.180445
75 1 0.941737 0.473506 0.5 0.781395 0.586251
76 1 0.21362 0.84635 0.5 0.0478565 0.115124
77 1 0.972877 0.593705 0.5 0.161822 0.513758
78 1 0.184614 0.726226 0.5 -0.127602 -0.235374
79 1 0.155439 0.984431 0.5 -0.545113 0.0815264
80 1 0.934434 0.570773 0.5 -0.353328 -0.155552
81 1 0.588699 0.97864 0.5 -0.515668 0.571574
82 1 0.299176 0.639071 0.5 -0.24247 -0.113944
83 1 0.545533 0.767913 0.5 -0.279937 0.332977
84 1 0.9219 0.387618 0.5 0.462797 0.720207
85 1 0.953773 0.801895 0.5 -0.0802952 0.223148
86 1 0.834512 0.430849 0.5 -0.257373 0.648795
87 1 0.825221 0.0943812 0.5 0.371729 0.733601
88 1 0.778138 0.393603 0.5 0.598006 0.107127
89 1 0.0737886 0.642098 0.5 -0.136456 -0.221053
90 1 0.28865 0.506227 0.5 -0.0208053 -0.135722
91 1 0.544175 0.91878 0.5 0.24648 -0.181684
92 1 0.331936 0.554073 0.5 -0.558602 0.0500026
93 1 0.253224 0.768758 0.5 -0.553463 -0.451328
94 1 0.509944 0.99324 0.5 0.49581 -0.28466
95 1 0.268803 0.653535 0.5 0.0685127 0.636909
96 1 0.100759 0.00237237 0.5 0.808237 0.0891653
97 1 0.805607 0.805562 0.5 0.37335 -0.40067
98 1 0.276688 0.719422 0.5 -0.183895 -0.445884
99 1 0.531365 0.924449 0.5 -0.394934 0.0768216
100 1 0.308568 0.786157 0.5 0.691408 0.0387467
101 1 0.173528 0.152614 0.5 0.302008 0.157837
102 1 0.763279 0.524135 0.5 0.78999 -0.0706725
103 1 0.257822 0.125427 0.5 -0.0536803 -0.0770119
104 1 0.427709 0.250483 0.5 -0.874238 0.131693
105 1 0.606868 0.430207 0.5 0.182628 -0.246689
106 1 0.267398 0.964497 0.5 0.0993961 0.160486
107 1 0.215849 0.00318734 0.5 -0.438549 0.348026
108 1 0.994329 0.257632 0.5 -0.028339 0.418926
109 1 0.778617 0.20026 0.5 -0.39435 -0.595319
110 1 0.380315 0.558061 0.5 -0.614229 0.336688
111 1 0.454141 0.113903 0.5 0.295584 0.131347
112 1 0.426118 0.691396 0.5 -0.0470532 0.917737
113 1 0.520404 0.626687 0.5 0.0321359 -0.320019
114 1 0.712349 0.31433 0.5 0.568106 -0.313255
115 1 0.408045 0.146801 0.5 0.454542 -0.686324
116 1 0.0626329 0.833919 0.5 -0.768341 -0.442075
117 1 0.837862 0.653716 0.5 -0.183163 0.773991
118 1 0.926835 0.598512 0.5 -0.929426 -0.1199
119 1 0.405506 0.794197 0.5 -0.264812 -0.576091
120 1 0.793478 0.980116 0.5 0.295368 -0.161694
121 1 0.466194 0.339097 0.5 -0.133848 -0.237667
122 1 0.791664 0.811201 0.5 0.0211179 0.644672
123 1 0.314833 0.627129 0.5 0.592488 0.339613
124 1 0.609203 0.965537 0.5 0.364727 -0.25581
125 1 0.0504374 0.56187 0.5 0.160687 -0.726108
126 1 0.930946 0.865691 0.5 -0.0600668 -0.419601
127 1 0.698908 0.0352651 0.5 0.245391 -0.264336
128 1 0.466988 0.182969 0.5 -0.561499 0.313029
129 1 0.415676 0.673967 0.5 0.0732666 0.249186
130 1 0.473095 0.690761 0.5 0.292402 -0.602399
131 1 0.952705 0.137042 0.5 -0.392409 0.347336
132 1 0.121874 0.391535 0.5 0.457961 -0.403417
133 1 0.229537 0.438045 0.5 -0.327599 0.243735
134 1 0.786501 0.331305 0.5 -0.439522 -0.464307
135 1 0.594633 0.889934 0.5 0.17278 0.12632
136 1 0.115507 0.555284 0.5 -0.581294 0.330316
137 1 0.498988 0.391973 0.5 -0.849574 -0.0769923
138 1 0.884319 0.966532 0.5 0.148945 -0.0575644
139 1 0.188002 0.506145 0.5 0.513767 0.623314
140 1 0.35708 0.892376 0.5 -0.569947 -0.658971
141 1 0.476205 0.14333 0.5 0.243007 -0.0435822
142 1 0.962102 0.921788 0.5 -0.345472 0.841941
143 1 0.618987 0.125434 0.5 -0.0804624 0.312812
144 1 0.202816 0.444663 0.5 0 0
145 1 0.474931 0.0363698 0.5 -0.602016 -0.620723
146 1 0.709671 0.504766 0.5 0.15778 0.377442
147 1 0.441966 0.263206 0.5 0.437051 0.164754
148 1 0.828949 0.066863 0.5 0.422163 0.643536
149 1 0.0155613 0.661203 0.5 -0.0744548 -0.924959
150 1 0.959591 0.380376 0.5 -0.836251 0.261288
151 1 0.886252 0.52134 0.5 -0.272715 0.211814
152 1 0.258185 0.229315 0.5 -0.444233 0.482192
153 1 0.128088 0.7644 0.5 0.0440781 0.326151
154 1 0.436038 0.402593 0.5 -0.365244 0.0932584
155 1 0.888507 0.780713 0.5 0.284871 0.587803
156 1 0.869855 0.954073 0.5 -0.387732 -0.0906811
157 1 0.407915 0.230467 0.5 -0.23677 0.899064
158 1 0.322312 0.697108 0.5 0.68842 0.0300044
159 1 0.351313 0.00490718 0.5 -0.0747653 0.311713
160 1 0.058313 0.27653 0.5 -0.606051 -0.0456491
161 1 0.71793 0.0578818 0.5 -0.524985 0.551519
162 1 0.533807 0.370713 0.5 0.567336 0.0848228
163 1 0.743577 0.251778 0.5 0.634486 -0.0574353
164 1 0.14508 0.803358 0.5 -0.144115 -0.327137
165 1 0.434624 0.662662 0.5 0.205805 0.194664
166 1 0.214101 0.788753 0.5 -0.869092 0.256364
167 1 0.990925 0.836183 0.5 0.0110226 0.720836
168 1 0.907245 0.255044 0.5 -0.157716 -0.0158186
169 1 0.0816306 0.379546 0.5 0.125646 0.126491
170 1 0.750477 0.581847 0.5 0.201871 -0.619095
171 1 0.307144 0.415617 0.5 -0.286856 0.263788
172 1 0.245547 0.62908 0.5 0.0433627 0.58408
173 1 0.714027 0.401643 0.5 -0.302257 0.346747
174 1 0.940063 0.0177282 0.5 0.228045 0.0660723
175 1 0.95548 0.59844 0.5 0.288241 0.356366
176 1 0.991239 0.778041 0.5 -0.550197 -0.305845
177 1 0.40904 0.876162 0.5 0.00227134 0.671355
178 1 0.351045 0.126705 0.5 -0.395022 -0.559804
179 1 0.303413 0.670843 0.5 0.396758 -0.307064
180 1 0.532771 0.711795 0.5 0.0785858 -0.602161
181 1 0.832218 0.781451 0.5 0 0
182 1 0.196866 0.142294 0.5 0.433963 -0.027321
183 1 0.0197314 0.110702 0.5 -0.542804 0.434151
184 1 0.449876 0.79486 0.5 0.325037 -0.160173
185 1 0.366571 0.990709 0.5 -0.172345 0.00979727
186 1 0.453364 0.949509 0.5 -0.488253 0.391389
187 1 0.276048 0.616698 0.5 0.631023 0.236044
188 1 0.423701 0.293413 0.5 -0.16334 -0.835207
189 1 0.0461337 0.57253 0.5 0.609071 -0.702165
190 1 0.594046 0.105772 0.5 0.479821 -0.105733
191 1 0.584243 0.0631219 0.5 -0.180522 -0.577749
192 1 0.183674 0.0560211 0.5 -0.130247 0.489101
193 1 0.856994 0.0901138 0.5 0.567398 -0.372502
194 1 0.765753 0.359409 0.5 0.432999 -0.583863
195 1 0.652085 0.739128 0.5 -0.322592 -0.097259
196 1 0.315649 0.292943 0.5 -0.65068 0.0545217
197 1 0.387484 0.603077 0.5 0.00856762 0.230043
198 1 0.626089 0.846783 0.5 -0.00780101 -0.493992
199 1 0.949027 0.775826 0.5 -0.528142 0.665713
200 1 0.142703 0.511081 0.5 0.128217 -0.450559
201 1 0.262573 0.372725 0.5 0.563123 -0.688828
202 1 0.0332401 0.616047 0.5 0.257678 0.0625866
203 1 0.199391 0.756365 0.5 -0.512086 -0.399441
204 1 0.345208 0.266309 0.5 -0.751361 -0.132756
205 1 0.774662 0.616831 0.5 0.178623 -0.562297
206 1 0.463701 0.0944546 0.5 0.526644 0.19669
207 1 0.501262 0.917522 0.5 0.176723 -0.315464
208 1 0.88386 0.724655 0.5 0.646342 0.0601845
209 1 0.802555 0.62321 0.5 -0.131292 0.136899
210 1 0.693726 0.148488 0.5 -0.217619 0.14259
211 1 0.746799 0.562558 0.5 -0.563988 -0.499078
212 1 0.336188 0.500213 0.5 0.31007 0.217498
213 1 0.358636 0.322108 0.5 0.251001 -0.759233
214 1 0.441337 0.741909 0.5 0.907059 0.32966
215 1 0.686828 0.439086 0.5 0.315865 0.312788
216 1 0.00419972 0.350042 0.5 -0.503021 -0.00832828
217 1 0.969232 0.384804 0.5 -0.600134 0.490008
218 1 0.756659 0.55666 0.5 -0.0202223 -0.255802
219 1 0.800905 0.449134 0.5 0.412702 -0.798623
220 1 0.835224 0.486721 0.5 -0.175899 0.672926
221 1 0.231388 0.615288 0.5 0.603799 0.463079
222 1 0.549861 0.164907 0.5 -0.487057 -0.0686001
223 1 0.261223 0.680717 0.5 -0.429484 0.29104
224 1 0.0810935 0.94632 0.5 0.584616 -0.10374
225 1 0.0286632 0.675564 0.5 -0.0897725 0.0718225
226 1 0.298537 0.060507 0.5 -0.231072 0.435282
227 1 0.822432 0.333802 0.5 -0.539191 0.396625
228 1 0.80562 0.242016 0.5 -0.0472937 -0.466901
229 1 0.276185 0.0523488 0.5 0.00541057 0.177909
230 1 0.617269 0.475868 0.5 -0.158391 -0.0705537
231 1 0.647189 0.6605 0.5 -0.631546 -0.251525
232 1 0.487521 0.658003 0.5 -0.540749 0.0347094
233 1 0.509649 0.44104 0.5 0.39931 0.668999
234 1 0.442542 0.547287 0.5 -0.10255 0.30744
235 1 0.826482 0.514369 0.5 -0.51247 0.129783
236 1 0.815255 0.34143 0.5 -0.0674376 -0.12409
237 1 0.432936 0.818067 0.5 0.0167986 -0.145394
238 1 0.215999 0.759001 0.5 -0.349523 -0.334674
239 1 0.757637 0.944083 0.5 -0.0069482 -0.097686
240 1 0.250464 0.387494 0.5 0.0805011 -0.547265
241 1 0.311648 0.157101 0.5 -0.22511 -0.523022
242 1 0.190243 0.917593 0.5 -0.434405 0.0822566
243 1 0.862869 0.206086 0.5 -0.596343 -0.174484
244 1 0.306336 0.868246 0.5 0.490007 0.771653
245 1 0.697879 0.172915 0.5 0.248755 0.0596737
246 1 0.365603 0.450981 0.5 -0.117471 -0.648025
247 1 0.290351 0.812402 0.5 -0.545816 -0.399457
248 1 0.309706 0.680343 0.5 0.618249 -0.353993
249 1 0.158309 0.0365665 0.5 0.0129276 0.643351
250 1 0.334614 0.0476374 0.5 0.193098 0.576005
251 1 0.116165 0.618962 0.5 -0.0443932 0.965309
252 1 0.25908 0.606537 0.5 0.374168 -0.151348
253 1 0.906318 0.70084 0.5 -0.250805 0.0869785
254 1 0.195062 0.587669 0.5 -0.797624 0.218081
255 1 0.70753 0.635703 0.5 -0.287486 -0.771084
256 1 0.504663 0.319911 0.5 0.112807 0.308363
257 1 0.446567 0.271956 0.5 0.536062 0.0657908
258 1 0.221781 0.7366 0.5 -0.359094 -0.77641
259 1 0.545548 0.223035 0.5 -0.415665 -0.866695
260 1 0.968412 0.321303 0.5 0.713101 -0.0397397
261 1 0.132237 0.745808 0.5 0.844185 -0.257683
262 1 0.322246 0.367908 0.5 -0.045952 -0.306368
263 1 0.67158 0.736043 0.5 0.166271 0.730499
264 1 0.754882 0.0411182 0.5 -0.658531 -0.181774
265 1 0.270486 0.834371 0.5 0.0425283 -0.384298
266 1 0.538759 0.337101 0.5 -0.465251 -0.296407
267 1 0.929147 0.377075 0.5 0.20224 -0.0446942
268 1 0.124713 0.502302 0.5 -0.72917 -0.0961092
269 1 0.710886 0.0267671 0.5 -0.2985 0.898276
270 1 0.365116 0.268851 0.5 -0.605745 0.129399
271 1 0.917287 0.603779 0.5 -0.724601 -0.368816
272 1 0.604331 0.255942 0.5 -0.651086 -0.319216
273 1 0.200638 0.0516594 0.5 -0.0213364 -0.132831
274 1 0.164199 0.552741 0.5 -0.116997 0.572412
275 1 0.532938 0.94007 0.5 0.558168 -0.116493
276 1 0.191413 0.419272 0.5 0.794575 -0.244265
277 1 0.438151 0.432518 0.5 -0.175938 0.433917
278 1 0.894663 0.966533 0.5 0.104809 -0.740904
279 1 0.248322 0.864384 0.5 0.297216 0.160465
280 1 0.495835 0.164007 0.5 -0.562493 -0.320347
281 1 0.31519 0.148536 0.5 -0.490796 -0.253589
282 1 0.895042 0.773444 0.5 -0.130646 0.461328
283 1 0.18665 0.1432 0.5 0.0381576 -0.374438
284 1 0.246977 0.538391 0.5 0.164511 0.8177
285 1 0.685394 0.826956 0.5 0.411602 0.672122
286 1 0.354695 0.623903 0.5 0.0635443 -0.239344
287 1 0.569028 0.870188 0.5 -0.611231 -0.318822
288 1 0.276573 0.260902 0.5 -0.205794 0.683658
289 1 0.781221 0.553613 0.5 0.607161 -0.529414
290 1 0.230615 0.823581 0.5 -0.532295 -0.0496087
291 1 0.341947 0.323155 0.5 -0.0406105 0.359071
292 1 0.345607 0.0293652 0.5 0.289978 -0.239274
293 1 0.184187 0.448422 0.5 0.233941 0.0533345
294 1 0.4825 0.442498 0.5 0.379155 -0.136726
295 1 0.467667 0.714939 0.5 -0.670458 0.198473
296 1 0.0845579 0.917582 0.5 0.0273483 -0.409409
297 1 0.705741 0.0464266 0.5 0.476438 0.584794
298 1 0.541695 0.831329 0.5 0.358646 -0.791739
299 1 0.919383 0.828641 0.5 0.169843 0.808634
300 1 0.354594 0.0238011 0.5 -0.574461 -0.60281
301 1 0.955711 0.52335 0.5 0.368727 -0.438997
302 1 0.306873 0.473266 0.5 -0.374872 0.530893
303 1 0.842268 0.266152 0.5 -0.512684 0.190641
304 1 0.913047 0.0826793 0.5 0 0
305 1 0.208838 0.265758 0.5 -0.405273 0.21108
306 1 0.0124906 0.2794 0.5 0.302415 -0.293571
307 1 0.275202 0.0339218 0.5 0.0200365 0.112482
308 1 0.583802 0.0402067 0.5 0.677391 0.521437
309 1 0.348223 0.200229 0.5 0.11861 0.315755
310 1 0.950335 0.0176831 0.5 0.321127 -0.306123
311 1 0.274715 0.00590723 0.5 0.0702452 0.404734
312 1 0.164849 0.835453 0.5 -0.337895 0.355164
313 1 0.262957 0.0405537 0.5 0.341329 -0.015257
314 1 0.539697 0.982224 0.5 -0.180501 0.444574
315 1 0.269525 0.122203 0.5 -0.133217 -0.0426609
316 1 0.886964 0.420839 0.5 -0.388399 0.250331
317 1 0.959084 0.0137241 0.5 -0.355126 0.308847
318 1 0.272886 0.20979 0.5 0.32938 -0.462234
319 1 0.432422 0.334463 0.5 0.0367113 0.747784
320 1 0.00371315 0.309657 0.5 -0.40225 -0.59038
321 1 0.187951 0.20932 0.5 -0.255082 -0.425788
322 1 0.489162 0.711203 0.5 -0.201118 -0.128942
323 1 0.767862 0.939101 0.5 -0.392332 -0.140945
324 1 0.263256 0.479202 0.5 0.131564 -0.692746
325 1 0.183644 0.677511 0.5 0.327258 -0.293288
326 1 0.169751 0.20605 0.5 -0.625747 -0.246426
327 1 0.497936 0.117012 0.5 0.371283 -0.342792
328 1 0.384568 0.443967 0.5 -0.395788 -0.363833
329 1 0.541521 0.194295 0.5 -0.281569 0.492446
330 1 0.323478 0.179271 0.5 0.568425 -0.22895
331 1 0.431436 0.649965 0.5 -0.79439 0.263087
332 1 0.765508 0.867549 0.5 -0.223465 -0.428487
333 1 0.0913076 0.0650501 0.5 -0.512467 0.0811324
334 1 0.458701 0.18761 0.5 -0.85415 -0.212131
335 1 0.232201 0.9423 0.5 -0.889903 -0.228697
336 1 0.650227 0.796245 0.5 0.692798 0.129551
337 1 0.951215 0.513541 0.5 0.67945 -0.337558
338 1 0.375173 0.920288 0.5 0.218641 -0.302233
339 1 0.787005 0.58829 0.5 0.0315813 0.522009
340 1 0.371815 0.164702 0.5 -0.287449 0.885693
341 1 0.5481 0.928198 0.5 0.536072 0.175115
342 1 0.377651 0.435645 0.5 0.468373 -0.575625
343 1 0.813537 0.838091 0.5 -0.275108 -0.814735
344 1 0.267468 0.175783 0.5 -0.316297 -0.668106
345 1 0.677464 0.748456 0.5 -0.115916 0.20224
346 1 0.0973004 0.0567803 0.5 0.189946 -0.17091
347 1 0.233711 0.463009 0.5 -0.438943 0.125598
348 1 0.547081 0.00684308 0.5 0.620623 0.607689
349 1 0.567292 0.905402 0.5 0.0502835 -0.410091
350 1 0.944024 0.643838 0.5 -0.914299 0.263127
351 1 0.352985 0.342458 0.5 -0.166315 -0.609922
352 1 0.447 0.711587 0.5 -0.435252 0.207719
353 1 0.0131945 0.355805 0.5 -0.582537 -0.697195
354 1 0.519011 0.442376 0.5 0.334705 0.47392
355 1 0.25665 0.96241 0.5 -0.279143 0.415616
356 1 0.318712 0.474329 0.5 0.163576 0.500171
357 1 0.882436 0.926848 0.5 -0.557734 -0.424764
358 1 0.739527 0.831106 0.5 0.563132 0.463474
359 1 0.614208 0.632111 0.5 0.646032 -0.176956
360 1 0.906075 0.790344 0.5 0.0900634 -0.950797
361 1 0.703373 0.0963453 0.5 0.419339 -0.0315215
362 1 0.14398 0.320098 0.5 0.594126 0.376471
363 1 0.458395 0.199574 0.5 -0.67777 0.26792
364 1 0.471322 0.7698 0.5 -0.00155654 -0.307808
365 1 0.39173 0.170024 0.5 -0.388006 0.360832
366 1 0.291757 0.610099 0.5 0.466074 0.150886
367 1 0.248569 0.800335 0.5 -0.19413 -0.500725
368 1 0.315404 0.0928411 0.5 0.197892 0.224044
369 1 0.365195 0.221862 0.5 0.227464 0.353129
370 1 0.195195 0.766286 0.5 -0.389763 -0.712734
371 1 0.123384 0.216785 0.5 -0.32533 -0.591424
372 1 0.256619 0.0129757 0.5 0.788854 0.19253
373 1 0.557194 0.32394 0.5 -0.405732 0.0702111
374 1 0.488965 0.2532 0.5 -0.309624 0.554404
375 1 0.232492 0.177606 0.5 -0.11035 0.608923
376 1 0.0772227 0.434743 0.5 0.514332 0.304324
377 1 0.150612 0.483167 0.5 -0.675999 -0.0797773
378 1 0.914552 0.433252 0.5 -0.572614 -0.649079
379 1 0.456123 0.321558 0.5 -0.190937 0.169243
380 1 0.372274 0.242374 0.5 0.316554 0.772229
381 1 0.534084 0.323229 0.5 0.805031 0.250843
382 1 0.108795 0.083417 0.5 0.126499 0.0909086
383 1 0.995379 0.23104 0.5 0.65613 0.0544446
384 1 0.92235 0.0796965 0.5 -0.470509 -0.0995748
385 1 0.110559 0.100456 0.5 0.654658 -0.0464972
386 1 0.54925 0.878023 0.5 -0.270762 -0.215514
387 1 0.664483 0.494819 0.5 0.0509919 0.21555
388 1 0.257251 0.169998 0.5 -0.0513539 -0.364792
389 1 0.322402 0.0731353 0.5 -0.248709 0.488206
390 1 0.027076 0.23582 0.5 0.0294927 0.459962
391 1 0.308662 0.964505 0.5 -0.16935 -0.151263
392 1 0.013612 0.634288 0.5 0.0731318 0.689824
393 1 0.204769 0.406841 0.5 -0.0175584 -0.0505276
394 1 0.901861 0.168419 0.5 -0.0179964 -0.571251
395 1 0.344049 0.334733 0.5 -0.207672 -0.438493
396 1 0.916435 0.534935 0.5 -0.206765 -0.533439
397 1 0.365918 0.914507 0.5 -0.0609691 -0.504249
398 1 0.999236 0.00687641 0.5 0.39987 0.0337317
399 1 0.416397 0.549502 0.5 -0.347428 -0.0362507
400 1 0.47335 0.0466657 0.5 -0.0464158 0.00951935
401 1 0.285737 0.872721 0.5 0.189676 -0.534832
402 1 0.0878821 0.277504 0.5 -0.609362 -0.547711
403 1 0.0618976 0.032934 0.5 -0.410458 -0.0645674
404 1 0.720149 0.721195 0.5 0.318088 -0.508503
405 1 0.19842 0.0366084 0.5 -0.490386 0.271837
406 1 0.331468 0.981897 0.5 -0.404601 -0.490895
407 1 0.248498 0.143506 0.5 -0.147083 -0.354591
408 1 0.168865 0.436009 0.5 -0.581989 -0.0599194
409 1 0.943168 0.142376 0.5 -0.47793 -0.142799
410 1 0.781739 0.913589 0.5 0.0450843 -0.511551
411 1 0.0788805 0.174139 0.5 0.183139 -0.324222
412 1 0.225581 0.26893 0.5 -0.111117 -0.934488
413 1 0.559026 0.968045 0.5 0.0954125 0.611894
414 1 0.148467 0.141958 0.5 0.337623 -0.625641
415 1 0.289029 0.63627 0.5 -0.0326138 0.154748
416 1 0.361023 0.614184 0.5 -0.0121787 0.468401
417 1 0.459491 0.649813 0.5 -0.088805 0.294392
418 1 0.775185 0.853604 0.5 -0.486956 0.358377
419 1 0.24604 0.668232 0.5 0.120697 0.0493347
420 1 0.285991 0.241815 0.5 -0.870209 0.0489942
421 1 0.194758 0.0591177 0.5 -0.171158 0.188955
422 1 0.127694 0.571593 0.5 0.321607 0.036079
423 1 0.480555 0.877041 0.5 0.600775 0.283226
424 1 0.969864 0.0747445 0.5 0.592957 0.244061
425 1 0.447738 0.102371 0.5 0.704217 0.0152989
426 1 0.374157 0.870164 0.5 0.401069 -0.400159
427 1 0.943098 0.326412 0.5 0.110711 0.482647
428 1 0.604445 0.732509 0.5 -0.162263 0.101373
429 1 0.338533 0.169104 0.5 0.0578287 -0.587818
430 1 0.779066 0.607419 0.5 0.370125 -0.440958
431 1 0.870583 0.565367 0.5 0.384576 0.740824
432 1 0.576595 0.00358666 0.5 0.626243 -0.340414
433 1 0.082414 0.447405 0.5 0.271986 0.553481
434 1 0.42371 0.329613 0.5 0.388326 0.0658769
435 1 0.202901 0.315976 0.5 -0.495257 -0.416233
436 1 0.185904 0.437372 0.5 -0.385078 -0.632558
437 1 0.757416 0.830485 0.5 -0.451599 -0.187296
438 1 0.532033 0.989862 0.5 0 0
439 1 0.176688 0.533203 0.5 0.561502 0.249652
440 1 0.0647148 0.638724 0.5 0.0625473 -0.168583
441 1 0.275181 0.759678 0.5 -0.578374 -0.334636
442 1 0.269801 0.903678 0.5 0.173957 -0.473897
443 1 0.201179 0.245738 0.5 0.616221 0.31696
444 1 0.923093 0.314944 0.5 0.269732 0.104668
445 1 0.0630505 0.663274 0.5 0.427452 0.384915
446 1 0.227781 0.0206495 0.5 -0.740018 0.0106787
447 1 0.451399 0.426482 0.5 0.0622624 -0.198309
448 1 0.694125 0.00737068 0.5 0.218659 -0.0595834
449 1 0.455491 0.961149 0.5 -0.278829 0.326406
450 1 0.854886 0.156264 0.5 0.0283794 0.0388853
451 1 0.183128 0.705714 0.5 0.122047 0.322185
452 1 0.1838 0.347293 0.5 -0.294315 0.413004
453 1 0.170466 0.164219 0.5 -0.218919 0.175671
454 1 0.37618 0.734651 0.5 -0.205015 -0.0702483
455 1 0.406596 0.891893 0.5 -0.164195 -0.168644
456 1 0.384568 0.877997 0.5 0.0784403 -0.487599
457 1 0.244813 0.480001 0.5 -0.602717 0.373511
458 1 0.289205 0.957937 0.5 0.712192 -0.0836229
459 1 0.26136 0.284085 0.5 -0.346472 0.191566
460 1 0.932582 0.856213 0.5 -0.100166 0.241801
461 1 0.435308 0.0692864 0.5 -0.194483 -0.697773
462 1 0.802245 0.0796859 0.5 -0.464359 0.654496
463 1 0.929327 0.471811 0.5 0.353622 0.118521
464 1 0.571503 0.881426 0.5 -0.529035 -0.182553
465 1 0.093597 0.806334 0.5 -0.211532 -0.0543979
466 1 0.0325881 0.205691 0.5 0.472627 -0.400219
467 1 0.172364 0.893708 0.5 0.305662 -0.0730576
468 1 0.821505 0.125187 0.5 -0.503359 0.482256
469 1 0.384328 0.739153 0.5 0.209677 -0.0760422
470 1 0.522865 0.864121 0.5 -0.0941536 -0.86908
471 1 0.0163696 0.814869 0.5 -0.146664 0.558662
472 1 0.0878778 0.0948628 0.5 -0.500017 -0.267459
473 1 0.599573 0.288405 0.5 0.217903 -0.427756
474 1 0.316353 0.825644 0.5 0.297706 -0.084642
475 1 0.38629 0.38999 0.5 -0.245771 -0.589833
476 1 0.667959 0.954248 0.5 -0.079142 0.459052
477 1 0.3679 0.289744 0.5 -0.573998 0.194786
478 1 0.266049 0.94467 0.5 -0.320223 -0.830972
479 1 0.274002 0.635256 0.5 0.70869 0.51879
480 1 0.244019 0.617904 0.5 0.384669 0.380737
481 1 0.755197 0.969008 0.5 -0.126769 0.468574
482 1 0.0729405 0.687697 0.5 0.335883 0.260095
483 1 0.797492 0.260474 0.5 0.258781 0.173466
484 1 0.997898 0.367809 0.5 0.70407 0.371342
485 1 0.399417 0.307705 0.5 0.0997469 -0.651953
486 1 0.0644311 0.971293 0.5 -0.343545 0.322746
487 1 0.772988 0.725656 0.5 -0.104444 0.130607
488 1 0.0992061 0.983298 0.5 0.00819535 0.189397
489 1 0.901332 0.318084 0.5 -0.557676 -0.0194893
490 1 0.306934 0.190251 0.5 -0.369722 0.369884
491 1 0.94374 0.611572 0.5 -0.343483 -0.543388
492 1 0.0636564 0.713798 0.5 -0.365065 -0.22784
493 1 0.360292 0.114128 0.5 -0.43712 0.168306
494 1 0.413472 0.688989 0.5 0.331864 0.122744
495 1 0.268809 0.934395 0.5 -0.512774 -0.562866
496 1 0.728583 0.0727181 0.5 0.162787 0.674958
497 1 0.553837 0.958908 0.5 0.769074 0.392375
498 1 0.527763 0.967592 0.5 -0.104594 0.00509929
499 1 0.113117 0.195914 0.5 0.358361 0.199686
500 1 0.159519 0.331834 0.5 0.454644 0.814499
501 1 0.0545912 0.708459 0.5 -0.81597 -0.276404
502 1 0.427172 0.156231 0.5 -0.061441 -0.165492
503 1 0.492673 0.125026 0.5 -0.221097 0.591696
504 1 0.576397 0.0965136 0.5 0.133947 -0.375548
505 1 0.600241 0.623512 0.5 0.0510789 -0.117841
506 1 0.386939 0.149891 0.5 -0.163797 0.124376
507 1 0.154868 0.588068 0.5 0.0136952 0.874064
508 1 0.099412 0.639915 0.5 -0.170555 -0.145301
509 1 0.187117 0.32812 0.5 0.575666 0.5985
510 1 0.700832 0.609322 0.5 0.588886 0.136797
511 1 0.421267 0.189496 0.5 -0.171986 0.248893
512 1 0.5773 0.396175 0.5 0.0760371 0.060213
513 1 0.210814 0.204736 0.5 0.0185647 0.222754
514 1 0.995168 0.659584 0.5 -0.826409 -0.297212
515 1 0.236266 0.474246 0.5 -0.672984 0.382395
516 1 0.55189 0.0657609 0.5 -0.610612 -0.252072
517 1 0.746184 0.204399 0.5 -0.100749 0.27163
518 1 0.8346 0.272966 0.5 -0.673264 0.0780024
519 1 0.861949 0.889142 0.5 -0.59745 -0.0130138
520 1 0.378743 0.911498 0.5 0.170262 -0.0891841
521 1 0.488443 0.537293 0.5 0 0
522 1 0.170228 0.795875 0.5 -0.0484668 -0.330579
523 1 0.991396 0.585528 0.5 0.676932 0.314004
524 1 0.0359131 0.00669795 0.5 0.106104 -0.0879692
525 1 0.496508 0.885171 0.5 0.217355 0.0173097
526 1 0.477006 0.805089 0.5 0.230757 -0.312028
527 1 0.431768 0.0931582 0.5 0.735333 0.182787
528 1 0.0215604 0.276997 0.5 -0.343673 -0.255303
529 1 0.211778 0.323689 0.5 -0.673115 -0.545996
530 1 0.194266 0.498804 0.5 0.711689 0.55655
531 1 0.146079 0.162662 0.5 0.0225804 -0.088476
532 1 0.219294 0.381941 0.5 -0.521194 0.340722
533 1 0.0548893 0.296729 0.5 0.775385 -0.181109
534 1 0.282557 0.774827 0.5 -0.540939 -0.426623
535 1 0.0130749 0.161495 0.5 0.099029 -0.62585
536 1 0.22321 0.152207 0.5 0.540048 0.266238
537 1 0.490246 0.27486 0.5 -0.508414 -0.066795
538 1 0.33739 0.704221 0.5 0.677215 0.0572641
539 1 0.247602 0.995278 0.5 0.144869 0.709614
540 1 0.925623 0.0201839 0.5 -0.155281 0.0311508
541 1 0.798764 0.745738 0.5 0.0475393 0.630134
542 1 0.364683 0.0196742 0.5 -0.574653 -0.602043
543 1 0.0632876 0.0149888 0.5 0.442733 -0.337882
544 1 0.9774 0.368789 0.5 -0.216706 -0.190244
545 1 0.180804 0.515088 0.5 -0.364822 0.692262
546 1 0.459153 0.398287 0.5 0.304336 -0.0166526
547 1 0.505725 0.846886 0.5 -0.0377678 -0.185378
548 1 0.452405 0.581612 0.5 -0.0305587 -0.162771
549 1 0.115338 0.590429 0.5 -0.0823081 0.647267
550 1 0.658965 0.199649 0.5 0.492372 0.0468172
551 1 0.744846 0.601595 0.5 0.0462033 -0.400377
552 1 0.217927 0.637863 0.5 0.646101 0.0972283
553 1 0.0598178 0.896944 0.5 0.0286399 0.0889103
554 1 0.658427 0.665956 0.5 -0.618238 0.217922
555 1 0.168516 0.230419 0.5 -0.52972 -0.16466
556 1 0.960578 0.347231 0.5 -0.572185 0.248343
557 1 0.79127 0.040668 0.5 0.0759917 0.398441
558 1 0.396531 0.862509 0.5 -0.383992 0.737116
559 1 0.0853648 0.835536 0.5 0.0600285 -0.40494
560 1 0.0911129 0.843998 0.5 0.780916 -0.411177
561 1 0.11971 0.599619 0.5 0.241274 0.792976
562 1 0.83657 0.551138 0.5 -0.687675 -0.363928
563 1 0.372995 0.697377 0.5 -0.440566 -0.516644
564 1 0.633218 0.00203872 0.5 0.331434 -0.544732
565 1 0.46659 0.814588 0.5 -0.219041 -0.192112
566 1 0.316734 0.869847 0.5 -0.0939856 0.367191
567 1 0.836924 0.540543 0.5 -0.850021 -0.357431
568 1 0.335836 0.679013 0.5 0.329649 -0.239689
569 1 0.956232 0.990969 0.5 -0.558764 0.364344
570 1 0.190066 0.104499 0.5 0.260394 0.418171
571 1 0.164472 0.72859 0.5 -0.649528 -0.715342
572 1 0.677852 0.216182 0.5 0.31353 0.386917
573 1 0.236584 0.0678964 0.5 -0.511475 -0.797649
574 1 0.259883 0.136938 0.5 -0.616621 0.350535
575 1 0.776555 0.864605 0.5 0.185037 -0.149797
576 1 0.326038 0.875585 0.5 -0.628107 0.205026
577 1 0.518065 0.0918665 0.5 -0.0472572 0.577358
578 1 0.901706 0.486008 0.5 -0.048586 -0.48555
579 1 0.566052 0.0036132 0.5 0.3553 -0.0864482
580 1 0.628951 0.453669 0.5 0.596477 -0.356562
581 1 0.58046 0.876187 0.5 -0.678477 0.347282
582 1 0.971884 0.989978 0.5 0.224789 0.419466
583 1 0.116261 0.898762 0.5 0.153875 -0.170168
584 1 0.911832 0.506127 0.5 0.509214 0.833742
585 1 0.298638 0.183595 0.5 -0.426228 0.287496
586 1 0.0426667 0.0174468 0.5 0.615237 -0.661941
587 1 0.499617 0.905344 0.5 0.38509 -0.0667359
588 1 0.718012 0.731056 0.5 0.198171 -0.821424
589 1 0.119361 0.72417 0.5 0.304464 0.176152
590 1 0.381839 0.811113 0.5 0.336929 -0.654355
591 1 0.242948 0.91645 0.5 -0.858397 0.0863799
592 1 0.764311 0.641033 0.5 -0.0221834 -0.506522
593 1 0.229127 0.144055 0.5 -0.0306288 0.808949
594 1 0.469132 0.837791 0.5 0.317949 0.13818
595 1 0.906108 0.425929 0.5 -0.61769 -0.157652
596 1 0.508496 0.944626 0.5 0.229567 -0.499902
597 1 0.295392 0.107744 0.5 0.376974 0.352276
598 1 0.332935 0.103518 0.5 0.496287 0.218214
599 1 0.981307 0.057964 0.5 0.384147 0.512383
600 1 0.14731 0.0869309 0.5 -0.176387 0.0719375
601 1 0.968274 0.683785 0.5 0.122536 -0.324942
602 1 0.343955 0.382446 0.5 0.471647 -0.758916
603 1 0.804443 0.220309 0.5 -0.172206 0.324828
604 1 0.24083 0.937286 0.5 -0.952953 -0.127586
605 1 0.83685 0.756373 0.5 0.722412 0.0501588
606 1 0.937583 0.399596 0.5 0.376622 0.457583
607 1 0.052101 0.344223 0.5 0.0178935 0.66974
608 1 0.0690076 0.127535 0.5 -0.0401082 0.368556
609 1 0.913277 0.139256 0.5 0.441724 -0.362023
610 1 0.456514 0.311464 0.5 -0.755725 -0.36719
611 1 0.743703 0.573135 0.5 0.366375 -0.775513
612 1 0.65178 0.727678 0.5 -0.740876 -0.177384
613 1 0.384909 0.191873 0.5 0.406198 -0.480093
614 1 0.953361 0.169647 0.5 -0.62866 -0.423001
615 1 0.322332 0.54971 0.5 -0.863511 0.178071
616 1 0.532039 0.201689 0.5 -0.383698 0.425097
617 1 0.79656 0.156303 0.5 -0.120151 0.148254
618 1 0.925364 0.695121 0.5 0.60537 -0.25701
619 1 0.732721 0.81281 0.5 0.241836 0.230614
620 1 0.967508 0.567501 0.5 -0.113461 0.0411321
621 1 0.309676 0.0135683 0.5 -0.114587 0.324143
622 1 0.316469 0.192749 0.5 -0.436684 0.340903
623 1 0.662731 0.0679558 0.5 0.163942 -0.0047261
624 1 0.528663 0.171882 0.5 0.192407 -0.870558
625 1 0.571124 0.665868 0.5 -0.507105 0.326462
626 1 0.0758816 0.148438 0.5 -0.63479 0.615714
627 1 0.0442564 0.499333 0.5 0.665829 0.175711
628 1 0.162092 0.299605 0.5 -0.709161 -0.554085
629 1 0.674364 0.0746548 0.5 -0.521969 0.197044
630 1 0.481514 0.590238 0.5 0.384836 0.525125
631 1 0.982029 0.513225 0.5 0.278491 -0.115123
632 1 0.332523 0.346368 0.5 0.00581056 -0.0146385
633 1 0.785023 0.931449 0.5 0.247047 -0.693487
634 1 0.582682 0.139687 0.5 -0.568784 0.361154