ITEM: TIMESTEP
0
ITEM: NUMBER OF ATOMS
9322
ITEM: BOX BOUNDS pp pp pp
-5.8359999999999999e+01 5.8359999999999999e+01
-5.8359999999999999e+01 5.8359999999999999e+01
-5.0000000000000000e-01 5.0000000000000000e-01
ITEM: ATOMS id type xs ys zs c_002[1] c_002[2]
1 1 0.89384 0.410388 0.5 0.323212 -0.121905
2 1 0.158167 0.729825 0.5 0.358813 -0.24793
3 1 0.341753 0.428302 0.5 0.357654 0.284262
4 1 0.897523 0.653993 0.5 0.281041 -0.777055
5 1 0.188778 0.240207 0.5 -0.268909 -0.46308
6 1 0.421621 0.327243 0.5 -0.379774 0.210012
7 1 0.139178 0.68596 0.5 -0.0403662 -0.249967
8 1 0.968204 0.593508 0.5 0.769854 -0.554178
9 1 0.293397 0.367259 0.5 0.142087 0.0154253
10 1 0.0444172 0.262054 0.5 0.419699 -0.788969
11 1 0.939388 0.413512 0.5 -0.469971 0.709588
12 1 0.198661 0.723733 0.5 0.131049 0.493388
13 1 0.0815716 0.0186198 0.5 0.0306215 -0.842122
14 1 0.10935 0.102827 0.5 -0.0947178 -0.513867
15 1 0.293429 0.664307 0.5 0.0461489 0.332855
16 1 0.117201 0.683824 0.5 -0.337456 0.0252615
17 1 0.990976 0.425831 0.5 0.663309 -0.271935
18 1 0.0351808 0.171961 0.5 -0.822637 0.0701335
19 1 0.785581 0.25564 0.5 0.281946 -0.193682
20 1 0.0877658 0.261706 0.5 0.625662 0.507088
21 1 0.282986 0.366838 0.5 0.125399 0.298019
22 1 0.83256 0.50911 0.5 0.708476 0.285124
23 1 0.239999 0.406725 0.5 -0.129496 0.624291
24 1 0.0559355 0.370478 0.5 -0.14825 0.772816
25 1 0.175884 0.33877 0.5 -0.366249 -0.531997
26 1 0.101455 0.552534 0.5 -0.235234 -0.359606
27 1 0.092615 0.322735 0.5 0.416349 0.398397
28 1 0.287427 0.379528 0.5 0.426792 -0.384502
29 1 0.600239 0.115919 0.5 0.858086 0.432599
30 1 0.934534 0.30617 0.5 0.0714252 -0.113788
31 1 0.754576 0.728304 0.5 0.539992 0.34515
32 1 0.91625 0.483051 0.5 -0.325417 -0.0347397
33 1 0.296379 0.475435 0.5 0.264384 -0.0293915
34 1 0.206858 0.48361 0.5 0.429076 -0.0513556
35 1 0.0997337 0.625931 0.5 0.0982898 0.105426
36 1 0.0376731 0.673693 0.5 0.307789 -0.657097
37 1 0.791846 0.299474 0.5 0.241419 -0.111781
38 1 0.142558 0.703598 0.5 -0.046231 -0.885319
39 1 0.0440832 0.62586 0.5 -0.115316 0.547797
40 1 0.0818238 0.545895 0.5 -0.627016 -0.354965
41 1 0.0921793 0.444457 0.5 0.0598565 -0.00129715
42 1 0.168957 0.747249 0.5 -0.0124423 0.178377
43 1 0.484547 0.547697 0.5 -0.404836 0.0431919
44 1 0.978829 0.267493 0.5 0.302795 -0.533369
45 1 0.0607478 0.436791 0.5 -0.287933 0.771172
46 1 0.189314 0.666666 0.5 0.115037 0.469594
47 1 0.121288 0.734311 0.5 0.391221 -0.876713
48 1 0.286276 0.336017 0.5 -0.109027 -0.035908
49 1 0.678157 0.0727147 0.5 -0.0598797 -0.445977
50 1 0.173572 0.296792 0.5 0.455154 -0.352976
51 1 0.134463 0.495258 0.5 -0.651195 0.0834448
52 1 0.245464 0.667902 0.5 0.289044 -0.462943
53 1 0.480971 0.248476 0.5 -0.0235442 0.516822
54 1 0.0898879 0.754315 0.5 0.136949 0.212536
55 1 0.259632 0.436312 0.5 -0.712271 -0.287407
56 1 0.252771 0.616155 0.5 -0.478167 -0.121624
57 1 0.910724 0.701615 0.5 -0.157382 0.905367
58 1 0.098411 0.292167 0.5 0.201103 0.0950678
59 1 0.220261 0.602793 0.5 0.514751 0.768952
60 1 0.0351725 0.181734 0.5 -0.464707 0.191495
61 1 0.18592 0.739823 0.5 0.743251 0.165262
62 1 0.132475 0.704983 0.5 0.214283 -0.940339
63 1 0.198186 0.0822415 0.5 -0.0182185 0.464294
64 1 0.154112 0.415859 0.5 0.105871 -0.48448
65 1 0.0919476 0.731884 0.5 0.0169826 -0.868242
66 1 0.159379 0.257563 0.5 0.181083 -0.406568
67 1 0.105406 0.198466 0.5 -0.340881 0.35281
68 1 0.0576368 0.670291 0.5 0.947482 0.00754411
69 1 0.160717 0.216088 0.5 0.167993 0.503605
70 1 0.769516 0.546344 0.5 0.666576 0.66307
71 1 0.156759 0.586445 0.5 0.236847 0.481922
72 1 0.975164 0.204432 0.5 0.416619 0.713305
73 1 0.490705 0.381081 0.5 -0.425095 0.102465
74 1 0.994814 0.563636 0.5 -0.0224774 -0.101702
75 1 0.0462696 0.124172 0.5 -0.467702 -0.191104
76 1 0.017625 0.553487 0.5 0.329432 -0.0606579
77 1 0.890112 0.596763 0.5 0.278956 0.0834522
78 1 0.9883 0.61548 0.5 0.194533 -0.136115
79 1 0.700022 0.687926 0.5 0.629047 -0.507482
80 1 0.0731736 0.405571 0.5 0.186783 -0.19663
81 1 0.959501 0.534781 0.5 0 0
82 1 0.954752 0.475811 0.5 -0.452018 0.0802353
83 1 0.744539 0.637271 0.5 -0.168167 -0.0388822
84 1 0.113025 0.325513 0.5 -0.347795 0.50736
85 1 0.0484859 0.567614 0.5 0.0496808 0.169006
86 1 0.0568369 0.21418 0.5 -0.24012 -0.418568
87 1 0.151176 0.494294 0.5 -0.341285 0.63776
88 1 0.92428 0.238898 0.5 0.492718 -0.580324
89 1 0.136808 0.260708 0.5 0.0526105 -0.745506
90 1 0.266642 0.355287 0.5 -0.518034 0.251573
91 1 0.0814312 0.269336 0.5 0.333031 0.676364
92 1 0.0507606 0.20656 0.5 0.0579042 -0.710526
93 1 0.230991 0.459528 0.5 0 0
94 1 0.179313 0.522821 0.5 0.708001 0.12893
95 1 0.964852 0.574586 0.5 -0.0722121 -0.0829842
96 1 0.189005 0.723592 0.5 0.0703026 0.660511
97 1 0.15956 0.750505 0.5 -0.0675826 -0.394529
98 1 0.158854 0.288072 0.5 0.419929 -0.0885982
99 1 0.202598 0.732443 0.5 0.507166 -0.0183996
100 1 0.332176 0.260214 0.5 0.556515 -0.166221
101 1 0.984579 0.6247 0.5 -0.114468 0.1236
102 1 0.0813025 0.474664 0.5 0.40303 -0.0446879
103 1 0.986596 0.507832 0.5 0.451437 -0.697811
104 1 0.891114 0.270591 0.5 0.273436 -0.295419
105 1 0.22479 0.432218 0.5 0.569476 0.743589
106 1 0.114061 0.726941 0.5 0.447479 -0.770518
107 1 0.0982872 0.583011 0.5 -0.404974 -0.61504
108 1 0.109907 0.665184 0.5 -0.0918884 -0.163503
109 1 0.859307 0.134043 0.5 -0.103536 -0.383568
110 1 0.783016 0.590744 0.5 -0.246747 -0.6303
111 1 0.321445 0.0570898 0.5 0.785428 -0.112728
112 1 0.133264 0.527716 0.5 -0.0853545 0.0543532
113 1 0.0647251 0.684799 0.5 -0.545591 -0.367412
114 1 0.282247 0.740673 0.5 0.385093 -0.824171
115 1 0.994362 0.712132 0.5 -0.410525 -0.143453
116 1 0.116144 0.455705 0.5 -0.401018 -0.487141
117 1 0.156614 0.126442 0.5 -0.676935 0.392046
118 1 0.969393 0.391719 0.5 -0.537085 0.0330552
119 1 0.064087 0.556529 0.5 -0.680957 -0.64434
120 1 0.305998 0.439208 0.5 -0.693361 -0.483104
121 1 0.991916 0.200282 0.5 0.000815321 -0.0305089
122 1 0.622812 0.395389 0.5 0.250217 -0.499706
123 1 0.177232 0.549765 0.5 0.353379 0.553763
124 1 0.265104 0.191212 0.5 -0.433755 -0.231329
125 1 0.126631 0.0722783 0.5 0.29977 0.585901
126 1 0.62842 0.329992 0.5 -0.622472 0.455782
127 1 0.0138191 0.236936 0.5 0.603808 0.356743
128 1 0.00663516 0.996923 0.5 0.0803159 0.278339
129 1 0.22973 0.604567 0.5 -0.195849 0.326236
130 1 0.210995 0.652409 0.5 0.3603 0.367781
131 1 0.0957659 0.207269 0.5 0.221665 0.440196
132 1 0.976212 0.0823323 0.5 0.285642 -0.17577
133 1 0.226044 0.991991 0.5 0.264492 0.56407
134 1 0.19742 0.217581 0.5 0.11772 -0.699057
135 1 0.193899 0.351719 0.5 -0.592044 0.483349
136 1 0.062859 0.299844 0.5 0.521184 -0.250594
137 1 0.0890107 0.132866 0.5 0.407003 -0.078539
138 1 0.095744 0.1639 0.5 -0.33985 -0.498979
139 1 0.954597 0.455416 0.5 -0.25681 0.0461462
140 1 0.197875 0.464149 0.5 0.144076 -0.0176562
141 1 0.13868 0.8783 0.5 -0.402153 -0.470945
142 1 0.0765697 0.260534 0.5 0.842947 0.410639
143 1 0.876885 0.660222 0.5 -0.748093 -0.366104
144 1 0.254313 0.561904 0.5 0.0670663 -0.767919
145 1 0.286311 0.183353 0.5 0.499209 -0.46572
146 1 0.192838 0.429051 0.5 0.438459 0.335141
147 1 0.0185402 0.668894 0.5 -0.0137063 -0.759012
148 1 0.0133808 0.858507 0.5 0.102393 -0.121946
149 1 0.138439 0.321345 0.5 0.374367 -0.127841
150 1 0.0762866 0.175405 0.5 -0.450303 0.338864
151 1 0.972574 0.357056 0.5 -0.014618 -0.453127
152 1 0.0558792 0.720358 0.5 0.628515 -0.399578
153 1 0.573119 0.412813 0.5 -0.69446 0.0718517
154 1 0.224464 0.298401 0.5 0.30754 -0.071632
155 1 0.123254 0.308196 0.5 -0.316878 -0.112815
156 1 0.861462 0.30012 0.5 -0.512151 0.601929
157 1 0.136733 0.0765643 0.5 0.213629 0.500144
158 1 0.989205 0.545042 0.5 -0.0427645 -0.685784
159 1 0.0724909 0.745938 0.5 -0.274022 -0.0989318
160 1 0.911536 0.000249055 0.5 0.703726 0.606306
161 1 0.160769 0.806675 0.5 0.495015 0.313039
162 1 0.183279 0.0589199 0.5 0.201119 0.445925
163 1 0.00655842 0.127962 0.5 0.709596 -0.30695
164 1 0.238981 0.550492 0.5 -0.402334 0.2781
165 1 0.198464 0.276544 0.5 0.00220297 -0.483721
166 1 0.239146 0.253984 0.5 -0.171151 0.334293
167 1 0.555803 0.30333 0.5 -0.402521 -0.24768
168 1 0.907968 0.232046 0.5 0.230831 -0.232033
169 1 0.0330394 0.339406 0.5 0.415673 0.488204
170 1 0.0148602 0.308233 0.5 -0.645034 0.160136
171 1 0.0347668 0.202024 0.5 0.0272623 0.00890812
172 1 0.0928338 0.722037 0.5 0.0686767 -0.604909
173 1 0.142258 0.53292 0.5 -0.0619025 0.00209678
174 1 0.0206065 0.336434 0.5 -0.372971 -0.189067
175 1 0.107108 0.499777 0.5 -0.553422 -0.171702
176 1 0.942847 0.759465 0.5 -0.357245 -0.398972
177 1 0.254037 0.310375 0.5 0.366749 -0.490491
178 1 0.202595 0.431174 0.5 0.602322 0.150979
179 1 0.179261 0.720169 0.5 -0.119488 0.733916
180 1 0.117073 0.248958 0.5 0.172164 0.233961
181 1 0.167958 0.449418 0.5 -0.108169 0.856969
182 1 0.154133 0.193866 0.5 0 0
183 1 0.296124 0.0709223 0.5 0.120395 0.302347
184 1 0.185801 0.793684 0.5 0.809761 0.0101064
185 1 0.144591 0.397679 0.5 0.41422 -0.0885733
186 1 0.950391 0.587683 0.5 0 0
187 1 0.210854 0.450284 0.5 0.485121 -0.261605
188 1 0.00663628 0.157562 0.5 0.21902 -0.169207
189 1 0.0959969 0.224603 0.5 0.681683 0.106009
190 1 0.0472009 0.311411 0.5 -0.275526 0.103387
191 1 0.217767 0.720951 0.5 0.618814 0.747328
192 1 0.0466437 0.537053 0.5 -0.805816 0.161102
193 1 0.121463 0.332732 0.5 -0.293423 0.431956
194 1 0.477321 0.36956 0.5 0.242802 0.630523
195 1 0.256327 0.395214 0.5 -0.0377554 0.357425
196 1 0.0927804 0.704581 0.5 0.597931 -0.297412
197 1 0.198564 0.207471 0.5 0.261868 -0.152166
198 1 0.178213 0.683857 0.5 0.0881856 0.387861
199 1 0.0355601 0.106648 0.5 -0.339208 0.163105
200 1 0.121704 0.317804 0.5 -0.55218 -0.111578
201 1 0.174083 0.69289 0.5 0.54729 -0.317434
202 1 0.999324 0.543929 0.5 0.478939 -0.810511
203 1 0.992661 0.636489 0.5 0.101933 -0.755511
204 1 0.0539339 0.197426 0.5 0.2613 -0.39193
205 1 0.905398 0.343726 0.5 -0.573459 -0.126071
206 1 0.28101 0.484536 0.5 0 0
207 1 0.326992 0.746356 0.5 -0.394616 -0.119378
208 1 0.129753 0.155762 0.5 -0.530068 -0.283486
209 1 0.10796 0.258979 0.5 -0.287135 0.287672
210 1 0.427518 0.412497 0.5 0.221023 -0.778805
211 1 0.995804 0.285475 0.5 -0.390952 -0.18998
212 1 0.0247899 0.749671 0.5 -0.689228 0.330251
213 1 0.99887 0.488996 0.5 0.39378 0.359933
214 1 0.0973332 0.694566 0.5 0.587868 -0.560465
215 1 0.239836 0.344757 0.5 0.00366062 -0.127269
216 1 0.132423 0.31341 0.5 -0.178533 -0.664132
217 1 0.135314 0.293442 0.5 0 0
218 1 0.134056 0.460025 0.5 0.277099 0.231744
219 1 0.985167 0.669437 0.5 0.399587 -0.217559
220 1 0.936856 0.0387051 0.5 0 0
221 1 0.136112 0.582329 0.5 -0.102631 -0.312195
222 1 0.366471 0.369428 0.5 -0.042628 0.276169
223 1 0.950866 0.540632 0.5 -0.848435 -0.0640273
224 1 0.145444 0.231294 0.5 -0.538104 0.745249
225 1 0.0678207 0.397112 0.5 -0.250414 -0.526186
226 1 0.180824 0.854052 0.5 -0.165811 -0.111354
227 1 0.129866 0.37034 0.5 0.326018 0.270543
228 1 0.283768 0.398395 0.5 -0.767576 0.194639
229 1 0.102519 0.477618 0.5 0.103792 0.21614
230 1 0.90476 0.536987 0.5 0.344008 0.412486
231 1 0.0140825 0.285445 0.5 -0.494763 -0.224056
232 1 0.22456 0.466531 0.5 0.349656 -0.340016
233 1 0.183255 0.562574 0.5 0.152411 0.370034
234 1 0.140808 0.479656 0.5 0.0786538 0.319217
235 1 0.0562032 0.340467 0.5 0.660402 -0.459404
236 1 0.871833 0.0674856 0.5 -0.19886 0.533304
237 1 0.213315 0.360733 0.5 -0.455898 0.326747
238 1 0.0465295 0.556638 0.5 -0.381339 0.580222
239 1 0.948543 0.561384 0.5 0.348192 -0.462132
240 1 0.125984 0.840645 0.5 0.129224 0.564191
241 1 0.140159 0.713397 0.5 0.314712 -0.845004
242 1 0.107953 0.226092 0.5 0.282034 0.621286
243 1 0.456435 0.395341 0.5 0.195079 0.659926
244 1 0.978961 0.496147 0.5 -0.418077 0.10337
245 1 0.360111 0.49729 0.5 -0.317231 0.458739
246 1 0.363773 0.516939 0.5 0.071218 0.277116
247 1 0.11962 0.607974 0.5 -0.896586 -0.139105
248 1 0.162616 0.556853 0.5 0.116435 0.394208
249 1 0.0348732 0.72829 0.5 0.138527 0.294875
250 1 0.761771 0.55598 0.5 0.597692 0.167609
251 1 0.0774363 0.393088 0.5 0.304095 -0.499425
252 1 0.173529 0.352344 0.5 -0.296591 -0.224855
253 1 0.151157 0.334404 0.5 0.317413 0.833433
254 1 0.121072 0.481653 0.5 -0.263798 -0.644742
255 1 0.192039 0.364714 0.5 -0.478775 -0.0408355
256 1 0.760516 0.240013 0.5 -0.300313 0.0856174
257 1 0.128187 0.602723 0.5 -0.328032 -0.0481776
258 1 0.264418 0.474838 0.5 0.481685 0.0338164
259 1 0.950707 0.446207 0.5 -0.0413222 0.478333
260 1 0.974152 0.248003 0.5 0.653128 -0.187578
261 1 0.932751 0.562757 0.5 0.0553536 -0.0864192
262 1 0.0283582 0.127732 0.5 0.0760023 -0.330843
263 1 0.0860128 0.226254 0.5 0.190723 0.159364
264 1 0.0033988 0.257535 0.5 -0.632965 0.123396
265 1 0.157361 0.346318 0.5 0.332072 -0.0628649
266 1 0.0348509 0.701349 0.5 0.387863 0.89657
267 1 0.0318968 0.718987 0.5 0.542839 0.725201
268 1 0.121041 0.239735 0.5 -0.0360172 0.383349
269 1 0.266227 0.809233 0.5 -0.830638 0.349589
270 1 0.913276 0.643935 0.5 0.154048 -0.354969
271 1 0.913073 0.621158 0.5 -0.633591 -0.614671
272 1 0.291983 0.653511 0.5 -0.172241 0.359432
273 1 0.396534 0.830053 0.5 -0.567698 -0.395068
274 1 0.215849 0.163206 0.5 0.754282 0.267507
275 1 0.270215 0.432915 0.5 -0.159089 -0.699422
276 1 0.0449149 0.736157 0.5 -0.082961 0.336117
277 1 0.0261497 0.634942 0.5 -0.463105 -0.348035
278 1 0.792483 0.668881 0.5 0.026719 0.384652
279 1 0.963402 0.716533 0.5 -0.250573 0.231807
280 1 0.111892 0.0933369 0.5 0.0772597 -0.303971
281 1 0.0909107 0.576955 0.5 -0.232125 -0.256393
282 1 0.121249 0.556877 0.5 -0.619947 -0.198984
283 1 0.0681298 0.669844 0.5 0.611613 -0.202081
284 1 0.952088 0.279618 0.5 0.110101 0.848688
285 1 0.031783 0.327066 0.5 0.293102 0.316765
286 1 0.0808635 0.513448 0.5 -0.234986 0.216762
287 1 0.176839 0.442165 0.5 -0.190051 0.695869
288 1 0.00754969 0.804765 0.5 0.0994445 0.329099
289 1 0.180379 0.479181 0.5 -0.10689 0.325547
290 1 0.18883 0.280124 0.5 -0.0669003 -0.111485
291 1 0.957788 0.559177 0.5 -0.120806 -0.379638
292 1 0.926861 0.682285 0.5 0.276769 -0.0719952
293 1 0.401747 0.61857 0.5 0.764521 -0.138291
294 1 0.386835 0.894579 0.5 0.203908 0.568247
295 1 0.0249167 0.728536 0.5 0.263708 0.321469
296 1 0.75779 0.738948 0.5 0.209079 0.595777
297 1 0.166372 0.863869 0.5 0.188115 -0.527563
298 1 0.317721 0.577807 0.5 -0.331133 -0.802816
299 1 0.820382 0.699069 0.5 0.22678 -0.110466
300 1 0.124608 0.829374 0.5 -0.245044 0.434627
301 1 0.976164 0.16035 0.5 -0.281762 0.447797
302 1 0.0965308 0.457944 0.5 -0.0948673 0.925001
303 1 0.86066 0.981484 0.5 -0.505745 0.439739
304 1 0.0916428 0.654491 0.5 -0.794971 0.179832
305 1 0.102706 0.218135 0.5 0.623201 0.128697
306 1 0.927046 0.571236 0.5 0.512657 -0.532276
307 1 0.00770854 0.640609 0.5 0.369325 -0.31297
308 1 0.172378 0.832106 0.5 -0.717147 0.318637
309 1 0.0543865 0.700314 0.5 -0.225039 -0.0967805
310 1 0.695306 0.812005 0.5 -0.691027 0.0259005
311 1 0.796192 0.558005 0.5 -0.399814 -0.344044
312 1 0.0122587 0.701013 0.5 0.448906 0.361251
313 1 0.931064 0.489423 0.5 0.759241 -0.395011
314 1 0.199484 0.814682 0.5 0.0185447 -0.598658
315 1 0.215387 0.691721 0.5 -0.318303 0.57724
316 1 0.00554281 0.838013 0.5 -0.0563528 -0.0807313
317 1 0.924432 0.0161686 0.5 -0.292339 -0.407801
318 1 0.187662 0.711446 0.5 0.116285 0.470406
319 1 0.220201 0.622827 0.5 0.232735 -0.207315
320 1 0.873942 0.592824 0.5 -0.554396 -0.0800554
321 1 0.205372 0.0124909 0.5 0.341599 0.216413
322 1 0.262038 0.86796 0.5 -0.276872 -0.00348232
323 1 0.773005 0.101958 0.5 0.07359 -0.189932
324 1 0.201778 0.522654 0.5 -0.00760012 0.713975
325 1 0.109589 0.612687 0.5 -0.11677 -0.0371821
326 1 0.117953 0.672845 0.5 -0.663776 -0.586737
327 1 0.885738 0.444277 0.5 -0.643654 -0.111039
328 1 0.179552 0.0750088 0.5 -0.0899425 0.350852
329 1 0.203869 0.892258 0.5 -0.233293 0.397839
330 1 0.0663992 0.719067 0.5 0.265238 -0.584607
331 1 0.232689 0.682206 0.5 -0.0949939 0.212527
332 1 0.128829 0.634489 0.5 0.158598 0.133885
333 1 0.744374 0.803348 0.5 0 0
334 1 0.294481 0.796332 0.5 -0.141983 0.769508
335 1 0.214447 0.834782 0.5 0.227886 -0.155876
336 1 0.166857 0.661879 0.5 -0.0513446 0.147666
337 1 0.963662 0.510535 0.5 0.198255 0.166508
338 1 0.999658 0.573389 0.5 0.363234 -0.458262
339 1 0.102654 0.852858 0.5 0.171204 0.666567
340 1 0.989307 0.924601 0.5 -0.218261 -0.180032
341 1 0.196875 0.823647 0.5 0.479842 -0.138115
342 1 0.260486 0.218222 0.5 0.107275 -0.617146
343 1 0.169406 0.757273 0.5 -0.188244 -0.162795
344 1 0.708904 0.670047 0.5 0.0612122 -0.231775
345 1 0.223893 0.803746 0.5 0.39526 -0.216665
346 1 0.921926 0.719748 0.5 -0.0195899 -0.00834353
347 1 0.182721 0.462105 0.5 0.278468 0.659085
348 1 0.421944 0.656932 0.5 -0.148617 0.213052
349 1 0.135742 0.674178 0.5 -0.607438 0.0369596
350 1 0.127102 0.811472 0.5 -0.174657 -0.245346
351 1 0.812273 0.669915 0.5 -0.778808 -0.457551
352 1 0.117157 0.652834 0.5 0.271068 -0.236505
353 1 0.259926 0.50202 0.5 0.390845 0.00584856
354 1 0.0479217 0.670141 0.5 0.46542 -0.426632
355 1 0.136982 0.904024 0.5 0.65391 -0.582119
356 1 0.978975 0.754193 0.5 0.420099 -0.465304
357 1 0.14097 0.60208 0.5 -0.0269711 0.0386941
358 1 0.171196 0.855776 0.5 0.752202 -0.340769
359 1 0.0373756 0.742579 0.5 -0.42201 0.321417
360 1 0.172347 0.230242 0.5 0.327101 0.494716
361 1 0.269866 0.862256 0.5 -0.801829 0.302223
362 1 0.824802 0.719184 0.5 -0.64292 -0.437482
363 1 0.922386 0.812439 0.5 0.21745 -0.282026
364 1 0.931485 0.599376 0.5 -0.324169 -0.596667
365 1 0.0226364 0.818461 0.5 0.5882 -0.485813
366 1 0.146635 0.57851 0.5 -0.558592 -0.252882
367 1 0.164273 0.817073 0.5 -0.0745406 -0.0737528
368 1 0.225627 0.953891 0.5 -0.276939 0.125439
369 1 0.937199 0.952685 0.5 0.41166 -0.49017
370 1 0.931747 0.720441 0.5 -0.249667 0.344507
371 1 0.814086 0.786 0.5 0.00336059 -0.882966
372 1 0.216043 0.571508 0.5 0.43553 0.652759
373 1 0.980295 0.845141 0.5 -0.449584 -0.376814
374 1 0.0888028 0.937462 0.5 -0.80553 0.071728
375 1 0.0445429 0.873499 0.5 -0.244552 -0.671582
376 1 0.314028 0.673875 0.5 -0.380086 0.307614
377 1 0.0839232 0.522419 0.5 -0.590487 0.615808
378 1 0.0151615 0.838337 0.5 0.275669 -0.669535
379 1 0.895306 0.761447 0.5 0.178151 -0.543782
380 1 0.925461 0.342149 0.5 -0.103552 -0.829949
381 1 0.112527 0.817039 0.5 -0.302137 0.282679
382 1 0.266415 0.799611 0.5 -0.444117 -0.0855824
383 1 0.033269 0.817144 0.5 0 0
384 1 0.305435 0.7552 0.5 0.653798 -0.63837
385 1 0.0333736 0.682235 0.5 -0.0347278 -0.0227997
386 1 0.211697 0.58037 0.5 0.52175 -0.0775672
387 1 0.187969 0.3305 0.5 0.0498319 0.812044
388 1 0.0279727 0.866785 0.5 0.454281 -0.430214
389 1 0.90357 0.612397 0.5 -0.331079 -0.487914
390 1 0.96324 0.783329 0.5 -0.344609 -0.337144
391 1 0.0221667 0.593037 0.5 -0.377675 -0.236877
392 1 0.695761 0.591769 0.5 -0.592967 0.34199
393 1 0.19011 0.806671 0.5 -0.144841 -0.164487
394 1 0.0295635 0.973552 0.5 -0.291371 -0.414684
395 1 0.0673346 0.775274 0.5 0.548139 0.554137
396 1 0.183787 0.638686 0.5 0.70635 0.0794012
397 1 0.995961 0.655357 0.5 0.00715434 -0.591288
398 1 0.733376 0.699988 0.5 -0.134537 -0.0524287
399 1 0.0522016 0.661112 0.5 0.669142 -0.265167
400 1 0.270317 0.606875 0.5 -0.51367 0.721923
401 1 0.03432 0.752776 0.5 -0.354501 0.327166
402 1 0.0877102 0.677664 0.5 0.515341 -0.491766
403 1 0.126595 0.986005 0.5 0.147378 0.318753
404 1 0.257468 0.698992 0.5 -0.480937 0.262196
405 1 0.0654813 0.739547 0.5 -0.0353474 0.0512822
406 1 0.154348 0.911134 0.5 -0.107061 -0.68215
407 1 0.00108778 0.778337 0.5 0.565215 0.268003
408 1 0.109345 0.989422 0.5 0 0
409 1 0.864526 0.773264 0.5 0.401087 -0.587258
410 1 0.961868 0.469434 0.5 -0.111251 0.108905
411 1 0.230079 0.649872 0.5 0.0518942 -0.193479
412 1 0.00246874 0.965108 0.5 0.224402 0.570139
413 1 0.0574282 0.773661 0.5 0.331933 -0.292969
414 1 0.00641003 0.687999 0.5 0.0686645 -0.412864
415 1 0.956647 0.210019 0.5 -0.304398 -0.0376366
416 1 0.212855 0.318738 0.5 -0.163991 0.595873
417 1 0.232667 0.620014 0.5 0.52856 -0.399125
418 1 0.219531 0.7748 0.5 0.246143 0.0871117
419 1 0.243893 0.620648 0.5 0.469528 -0.313989
420 1 0.0626075 0.878686 0.5 0.689931 0.0998685
421 1 0.920077 0.563952 0.5 0.718769 -0.355201
422 1 0.15169 0.989697 0.5 -0.0647807 -0.180176
423 1 0.128339 0.688722 0.5 -0.0804513 -0.326682
424 1 0.827279 0.83161 0.5 -0.169736 -0.0780977
425 1 0.956395 0.842029 0.5 0.271028 -0.02197
426 1 0.859045 0.653748 0.5 0.47458 0.252198
427 1 0.0845108 0.904505 0.5 0.557489 0.19696
428 1 0.846431 0.877774 0.5 -0.152143 0.215482
429 1 0.924031 0.641017 0.5 0.106733 -0.018605
430 1 0.903449 0.625956 0.5 -0.222652 -0.350952
431 1 0.844807 0.585028 0.5 0.355546 0.0705829
432 1 0.216164 0.128612 0.5 0 0
433 1 0.131152 0.769735 0.5 0.602164 0.377185
434 1 0.27169 0.952596 0.5 0.392433 0.0312411
435 1 0.0285521 0.76944 0.5 -0.119553 -0.0132144
436 1 0.365462 0.834453 0.5 0.083142 0.658706
437 1 0.962825 0.726508 0.5 -0.539789 -0.290508
438 1 0.969761 0.77573 0.5 0.242161 0.0845542
439 1 0.980292 0.812473 0.5 0.00148609 0.036999
440 1 0.786874 0.659902 0.5 -0.00216739 -0.396582
441 1 0.0929142 0.594162 0.5 -0.324302 -0.573136
442 1 0.151158 0.623317 0.5 -0.18515 0.209477
443 1 0.0931495 0.526074 0.5 -0.76105 0.239858
444 1 0.996439 0.691166 0.5 0.514904 -0.296716
445 1 0.766439 0.80325 0.5 -0.0989505 -0.494338
446 1 0.966976 0.653315 0.5 0.0454422 -0.816823
447 1 0.165183 0.439107 0.5 0.213115 0.569264
448 1 0.0550664 0.756821 0.5 -0.116519 -0.488276
449 1 0.21416 0.994068 0.5 -0.294864 0.173761
450 1 0.924763 0.96819 0.5 -0.435669 -0.375504
451 1 0.960482 0.494853 0.5 0.122322 -0.454825
452 1 0.844125 0.063602 0.5 -0.564677 -0.501989
453 1 0.171456 0.925535 0.5 -0.621679 0.109654
454 1 0.952222 0.884823 0.5 -0.0879207 0.695037
455 1 0.0185736 0.870556 0.5 0.0613202 0.1502
456 1 0.810354 0.705768 0.5 0.279217 -0.0435149
457 1 0.0686375 0.62984 0.5 -0.387271 -0.487316
458 1 0.0714457 0.72772 0.5 0.353635 -0.658385
459 1 0.0537504 0.495865 0.5 -0.37114 0.0882175
460 1 0.170581 0.70285 0.5 0.308229 -0.502944
461 1 0.877537 0.684976 0.5 0.084235 0.194619
462 1 0.965312 0.204821 0.5 0.251089 0.429719
463 1 0.927201 0.924675 0.5 -0.174928 0.282048
464 1 0.126283 0.761239 0.5 0.0172084 -0.151821
465 1 0.843584 0.808354 0.5 -0.0359331 -0.593215
466 1 0.00341889 0.708955 0.5 -0.10425 -0.178885
467 1 0.95214 0.941684 0.5 0.701295 -0.26086
468 1 0.358041 0.00550686 0.5 -0.156231 0.411828
469 1 0.313604 0.686892 0.5 -0.443171 0.37939
470 1 0.188751 0.696806 0.5 -0.602828 0.182886
471 1 0.115587 0.278837 0.5 -0.0552168 -0.0718631
472 1 0.848719 0.888472 0.5 0.145785 0.513416
473 1 0.353005 0.85016 0.5 0.117809 0.778514
474 1 0.147449 0.555276 0.5 -0.556479 -0.161419
475 1 0.24941 0.962524 0.5 -0.724448 0.552673
476 1 0.740827 0.745512 0.5 -0.0973157 0.941434
477 1 0.173209 0.777441 0.5 0.225191 -0.767341
478 1 0.921534 0.591475 0.5 -0.333907 -0.515743
479 1 0.124995 0.00568569 0.5 0.0802444 0.16113
480 1 0.822268 0.664174 0.5 -0.157247 0.0880183
481 1 0.37023 0.815335 0.5 0 0
482 1 0.79062 0.283871 0.5 0.0812094 -0.542701
483 1 0.153636 0.9351 0.5 -0.733062 0.0617074
484 1 0.329668 0.90917 0.5 -0.246713 0.0943111
485 1 0.0633058 0.696015 0.5 -0.37793 -0.489402
486 1 0.294524 0.736379 0.5 0.0305171 -0.0924319
487 1 0.301979 0.971815 0.5 -0.35836 0.217719
488 1 0.391892 0.812325 0.5 0.111238 -0.286668
489 1 0.856207 0.736348 0.5 -0.34821 -0.542735
490 1 0.845872 0.856506 0.5 0.104304 0.695929
491 1 0.815467 0.450304 0.5 0 0
492 1 0.762863 0.812234 0.5 -0.219503 -0.0334698
493 1 0.358163 0.556369 0.5 -0.216987 -0.0729534
494 1 0.882634 0.494273 0.5 -0.119372 -0.544435
495 1 0.988169 0.794432 0.5 0.249152 -0.377909
496 1 0.0376622 0.76494 0.5 -0.393545 0.31138
497 1 0.147481 0.681011 0.5 -0.0600707 0.0541949
498 1 0.111356 0.934962 0.5 0.477945 0.263024
499 1 0.0737445 0.538374 0.5 -0.683149 -0.0411725
500 1 0.0595457 0.897514 0.5 -0.798886 -0.183484
501 1 0.02328 0.604565 0.5 -0.512281 0.194684
502 1 0.299993 0.818378 0.5 -0.884576 0.368258
503 1 0.21199 0.886986 0.5 -0.52143 -0.103774
504 1 0.200574 0.804109 0.5 0.271099 -0.0276675
505 1 0.172189 0.629966 0.5 -0.686953 0.243347
506 1 0.0961958 0.0534626 0.5 0.016271 -0.236094
507 1 0.10997 0.569919 0.5 -0.168116 -0.829696
508 1 0.859043 0.555119 0.5 -0.433202 -0.584552
509 1 0.986917 0.944307 0.5 0.787954 0.00900482
510 1 0.807141 0.553034 0.5 -0.845071 -0.216908
511 1 0.97272 0.901881 0.5 -0.222882 0.059203
512 1 0.971647 0.584554 0.5 0.217878 -0.360838
513 1 0.961875 0.831181 0.5 0.697321 0.0301224
514 1 0.791156 0.755198 0.5 0.243567 0.779391
515 1 0.26758 0.00657443 0.5 -0.0178258 0.225632
516 1 0.0595735 0.711114 0.5 0.203866 -0.474264
517 1 0.239533 0.917412 0.5 -0.249609 -0.653647
518 1 0.0911166 0.0144051 0.5 -0.375601 -0.719779
519 1 0.168602 0.883035 0.5 -0.20084 0.22644
520 1 0.88277 0.588591 0.5 -0.238143 -0.395956
521 1 0.978602 0.537695 0.5 0.191659 -0.779562
522 1 0.149171 0.38164 0.5 0.320147 0.0967582
523 1 0.949186 0.648878 0.5 -0.119798 -0.212738
524 1 0.732826 0.676153 0.5 0.198699 0.4522
525 1 0.00169565 0.604927 0.5 0.345077 -0.135447
526 1 0.499813 0.691287 0.5 0.360656 -0.324791
527 1 0.162207 0.707368 0.5 -0.230123 -0.154979
528 1 0.892625 0.955545 0.5 -0.543256 -0.280755
529 1 0.866805 0.608733 0.5 -0.0439172 0.668283
530 1 0.994842 0.26153 0.5 -0.304471 0.228058
531 1 0.0798695 0.735209 0.5 -0.0875992 -0.453859
532 1 0.152554 0.967582 0.5 -0.76364 -0.0451603
533 1 0.0715141 0.659274 0.5 0.224364 -0.356102
534 1 0.159973 0.613826 0.5 -0.0454092 0.360115
535 1 0.915205 0.907569 0.5 -0.0225989 -0.305325
536 1 0.851639 0.848635 0.5 0.554373 0.458408
537 1 0.0189821 0.885371 0.5 0.291208 0.0333154
538 1 0.194033 0.564893 0.5 -0.559034 0.171266
539 1 0.86388 0.686486 0.5 0.236209 -0.202882
540 1 0.548955 0.918098 0.5 0.431877 0.206106
541 1 0.968935 0.754801 0.5 0.604749 -0.323066
542 1 0.776347 0.663508 0.5 -0.355855 -0.424077
543 1 0.979474 0.823856 0.5 0.24617 0.300324
544 1 0.167835 0.892897 0.5 -0.130744 -0.235515
545 1 0.025677 0.0206622 0.5 0.173606 -0.271312
546 1 0.0126811 0.597227 0.5 -0.686173 -0.28831
547 1 0.210952 0.526349 0.5 -0.657191 0.170017
548 1 0.434297 0.635596 0.5 0.0951166 0.0103489
549 1 0.110229 0.644897 0.5 -0.330145 -0.775281
550 1 0.18397 0.531868 0.5 0.421134 0.187596
551 1 0.984074 0.745291 0.5 0.504804 -0.0787115
552 1 0.938467 0.147038 0.5 0.228246 0.200066
553 1 0.934369 0.742045 0.5 -0.672635 0.281119
554 1 0.881246 0.0316263 0.5 -0.422505 0.570421
555 1 0.0170472 0.709194 0.5 0.810772 0.312555
556 1 0.121469 0.628431 0.5 -0.479737 -0.0529377
557 1 0.0956995 0.808485 0.5 -0.13969 -0.506919
558 1 0.669422 0.693946 0.5 -0.0452282 0.363913
559 1 0.967158 0.681237 0.5 0.76414 -0.086397
560 1 0.97299 0.964605 0.5 0.434914 0.355371
561 1 0.0652132 0.374307 0.5 -0.0317632 0.696785
562 1 0.96393 0.460363 0.5 -0.416946 -0.401884
563 1 0.913362 0.609334 0.5 -0.119037 -0.393386
564 1 0.771779 0.750868 0.5 0.368725 0.737302
565 1 0.222275 0.352521 0.5 0.248481 0.694385
566 1 0.306328 0.6807 0.5 -0.452999 -0.33415
567 1 0.955275 0.974148 0.5 0.144422 0.0614097
568 1 0.439558 0.705232 0.5 -0.368364 0.67477
569 1 0.234521 0.827315 0.5 0.4764 -0.360056
570 1 0.0306468 0.789242 0.5 0.882677 0.0794837
571 1 0.674515 0.660443 0.5 -0.0262123 0.217105
572 1 0.87747 0.938884 0.5 0.161125 0.0662235
573 1 0.0101431 0.717006 0.5 -0.156894 -0.149336
574 1 0.961109 0.672911 0.5 0.662542 -0.72348
575 1 0.578486 0.851652 0.5 -0.714524 0.330013
576 1 0.902046 0.504304 0.5 0.500977 -0.358351
577 1 0.163661 0.931695 0.5 -0.661227 -0.0389738
578 1 0.0386015 0.531674 0.5 -0.850086 3.06191e-05
579 1 0.137974 0.517219 0.5 0.0287641 0.227643
580 1 0.863979 0.930463 0.5 0.787868 0.295453
581 1 0.740083 0.657915 0.5 -0.768007 -0.611183
582 1 0.422812 0.755068 0.5 0.049347 0.151707
583 1 0.0733162 0.768054 0.5 -0.136235 0.426019
584 1 0.0641647 0.499374 0.5 -0.603757 0.405704
585 1 0.0345303 0.983781 0.5 0.0894357 0.0320122
586 1 0.895644 0.620251 0.5 -0.632628 0.18231
587 1 0.203962 0.493366 0.5 -0.0137092 -0.310247
588 1 0.182893 0.57265 0.5 0.0762445 0.503089
589 1 0.744311 0.698337 0.5 0.613007 -0.183313
590 1 0.0298854 0.561764 0.5 0.162485 0.283493
591 1 0.76344 0.693413 0.5 0.0742181 0.209575
592 1 0.935942 0.658422 0.5 0.475088 -0.625223
593 1 0.0818647 0.884437 0.5 0.334516 0.37819
594 1 0.107207 0.92469 0.5 -0.182438 0.808349
595 1 0.196783 0.418688 0.5 0.42816 0.0455172
596 1 0.0976103 0.675949 0.5 0.635415 -0.465811
597 1 0.987354 0.909075 0.5 0.356497 -0.360272
598 1 0.807511 0.831833 0.5 -0.30257 -0.522148
599 1 0.853465 0.755539 0.5 0.459942 -0.17123
600 1 0.658626 0.0327287 0.5 -0.156076 0.084944
601 1 0.76681 0.678727 0.5 -0.687078 -0.461773
602 1 0.00354444 0.813522 0.5 0.392422 -0.374942
603 1 0.775614 0.950338 0.5 -0.555391 0.00802846
604 1 0.859151 0.72174 0.5 0.0397315 0.0762012
605 1 0.712723 0.786562 0.5 0.517093 0.116451
606 1 0.0442269 0.980247 0.5 -0.218064 0.0377862
607 1 0.86643 0.00929862 0.5 0.638945 0.251235
608 1 0.284557 0.934093 0.5 0.38625 0.76421
609 1 0.839932 0.864933 0.5 0.347405 0.361208
610 1 0.0194449 0.92359 0.5 -0.287917 -0.271481
611 1 0.875399 0.0122145 0.5 0.445681 0.548098
612 1 0.174653 0.974156 0.5 0.740518 0.393641
613 1 0.76919 0.831779 0.5 0.534599 0.273356
614 1 0.484275 0.205748 0.5 0.751838 0.453252
615 1 0.874743 0.155888 0.5 0.20101 0.811898
616 1 0.900153 0.943616 0.5 0.109073 0.46491
617 1 0.841073 0.978853 0.5 0.253751 0.000748976
618 1 0.98091 0.284462 0.5 0.165346 -0.138654
619 1 0.521766 0.985494 0.5 0.171528 -0.703992
620 1 0.764556 0.611583 0.5 -0.583662 0.761316
621 1 0.999045 0.82318 0.5 0.329605 -0.312338
622 1 0.0606327 0.824985 0.5 -0.0408167 -0.652656
623 1 0.860909 0.000288462 0.5 0.768281 -0.455222
624 1 0.0679205 0.856607 0.5 0.167887 -0.0051575
625 1 0.794557 0.848231 0.5 -0.748157 -0.572559
626 1 0.76789 0.714411 0.5 -0.507586 0.219383
627 1 0.943323 0.00804988 0.5 -0.132731 -0.387107
628 1 0.718102 0.0334192 0.5 -0.747715 -0.477461
629 1 0.841373 0.0760373 0.5 0.344722 -0.259358
630 1 0.817108 0.828757 0.5 -0.106208 -0.128288
631 1 0.826409 0.942071 0.5 0.165066 0.549978
632 1 0.976901 0.710742 0.5 -0.483349 -0.479874
633 1 0.0380289 0.936523 0.5 -0.839721 -0.306508
634 1 0.804618 0.0386804 0.5 -0.75617 0.569673
635 1 0.954008 0.894199 0.5 -0.183696 0.83119