# LAMMPS data file written by Ovito 3.7.11
9322 atoms
1 atom types
-58.36 58.36 xlo xhi
-58.36 58.36 ylo yhi
-0.5 0.5 zlo zhi

Atoms  # atomic

1 1 33.0982904 2.26133328 0.0
2 1 57.68886 33.20602296 0.0
3 1 -28.38665416 0.945432 0.0
4 1 -42.42456856 30.25113944 0.0
5 1 -40.78535288 -31.27675808 0.0
6 1 8.52452848 0.4038512 0.0
7 1 -55.955299544 35.15944888 0.0
8 1 -57.041869368 -12.50969944 0.0
9 1 -14.35259152 -17.22693824 0.0
10 1 20.7633208 -8.31023056 0.0
11 1 -55.841054008 14.33134848 0.0
12 1 -29.09701208 -44.46611808 0.0
13 1 -36.40765256 -50.2856022 0.0
14 1 50.81545264 -0.4487884 0.0
15 1 -23.17615664 9.0037808 0.0
16 1 -42.97081816 32.4411568 0.0
17 1 -25.40107328 -8.03056944 0.0
18 1 -57.5100636352 -34.77357256 0.0
19 1 54.12096304 -55.54331296 0.0
20 1 -44.0740556 -3.046392 0.0
21 1 -27.98046856 2.73720072 0.0
22 1 56.85477888 50.49062088 0.0
23 1 -27.87542056 3.90871936 0.0
24 1 50.40284744 -34.0711516 0.0
25 1 -51.1793856 14.70310168 0.0
26 1 53.66750584 -9.16088592 0.0
27 1 -16.69702944 -36.25043072 0.0
28 1 -32.01652944 34.0664828 0.0
29 1 23.93366944 49.06617 0.0
30 1 40.82795568 -18.13817128 0.0
31 1 29.02277816 56.58200424 0.0
32 1 30.35677104 -3.99018992 0.0
33 1 -31.8709796 -5.90451464 0.0
34 1 -24.5100328 13.7052624 0.0
35 1 -35.01028072 21.94989632 0.0
36 1 54.61725648 21.27303704 0.0
37 1 49.85332968 -6.55709616 0.0
38 1 -46.4446388 -56.641274656 0.0
39 1 -46.2135332 21.38403776 0.0
40 1 -54.960553344 4.21849424 0.0
41 1 -18.70484688 -46.58131792 0.0
42 1 -28.3559568 30.15099368 0.0
43 1 -9.9888976 -5.10334856 0.0
44 1 34.59895944 -42.88199424 0.0
45 1 54.8478952 -26.26876976 0.0
46 1 -15.30537688 2.39999664 0.0
47 1 -38.3145072 47.19386448 0.0
48 1 -20.1015184 -4.93562192 0.0
49 1 55.12872352 -42.76725848 0.0
50 1 55.0323128 -3.99170728 0.0
51 1 57.9228836 -1.80122304 0.0
52 1 -24.19990776 26.46941144 0.0
53 1 -5.55855656 -31.53821088 0.0
54 1 -40.06717472 41.95196928 0.0
55 1 -6.85228104 -6.16421664 0.0
56 1 -39.42054592 34.92822656 0.0
57 1 45.92803608 -53.566741464 0.0
58 1 -35.80350984 -38.34905632 0.0
59 1 -25.20930232 33.6521268 0.0
60 1 -52.182722392 -15.72288432 0.0
61 1 -31.89934256 17.44450432 0.0
62 1 -17.8692484 7.13077496 0.0
63 1 -54.120157672 -28.059488 0.0
64 1 -56.996255192 -17.2868156 0.0
65 1 -7.46085912 24.72934968 0.0
66 1 -47.334301984 -15.90846912 0.0
67 1 -24.53489416 -19.52340424 0.0
68 1 -39.71012824 17.09924656 0.0
69 1 36.27074 -35.50844168 0.0
70 1 -31.2739568 18.61602296 0.0
71 1 9.6533276 34.90499928 0.0
72 1 -34.72513376 -20.17726968 0.0
73 1 12.56514144 -3.71904936 0.0
74 1 47.39438944 -1.00565952 0.0
75 1 -47.232627192 -39.57076456 0.0
76 1 -55.804730744 -9.53065488 0.0
77 1 18.37336208 34.48679152 0.0
78 1 41.49466032 31.52852312 0.0
79 1 57.13233904 23.99541432 0.0
80 1 -48.45619128 -18.17773936 0.0
81 1 -52.8338916 17.27070824 0.0
82 1 -53.93701232 -8.15721064 0.0
83 1 -4.99631632 17.40972176 0.0
84 1 53.15440472 -36.7889768 0.0
85 1 49.19561248 -8.57927016 0.0
86 1 -51.967525728 -26.6197468 0.0
87 1 17.9410312 -22.54283392 0.0
88 1 37.7507496 -12.97529552 0.0
89 1 39.62270496 19.47601592 0.0
90 1 -30.52216328 -12.06032744 0.0
91 1 20.74826392 -0.76766744 0.0
92 1 -39.1788188 -33.96388592 0.0
93 1 -25.61432072 10.5386488 0.0
94 1 -38.56592208 29.12665896 0.0
95 1 -37.66752824 8.29960904 0.0
96 1 -10.29400368 41.7775896 0.0
97 1 -22.11470496 25.53168296 0.0
98 1 -44.31881744 -21.26428304 0.0
99 1 -25.27781696 44.88549304 0.0
100 1 -37.73475896 -5.52097272 0.0
101 1 -53.37448028 34.38734608 0.0
102 1 -46.15038768 -28.90792568 0.0
103 1 46.06810008 38.69466424 0.0
104 1 46.53953216 17.94826784 0.0
105 1 -17.61234768 -5.26208776 0.0
106 1 -42.81511368 14.6582812 0.0
107 1 -49.60401576 30.82598544 0.0
108 1 -46.35102936 56.39723648 0.0
109 1 42.09238344 -33.41273408 0.0
110 1 -28.10139048 10.22688968 0.0
111 1 -13.91850984 -47.283867272 0.0
112 1 -43.34292152 16.64053696 0.0
113 1 -32.93943448 30.74895024 0.0
114 1 52.3816016 -50.622911328 0.0
115 1 -32.84080608 42.3145016 0.0
116 1 45.65491128 30.18507592 0.0
117 1 -41.08812456 -24.55298576 0.0
118 1 26.87874848 -7.70270296 0.0
119 1 -43.685378 11.4543172 0.0
120 1 -23.52701696 32.69257168 0.0
121 1 57.10771112 -32.44617576 0.0
122 1 16.30531712 -1.13965408 0.0
123 1 -40.69933024 19.67747464 0.0
124 1 -11.5850436 -26.2421576 0.0
125 1 -46.46179664 -25.42675168 0.0
126 1 19.79092648 16.53327128 0.0
127 1 26.71464016 -43.38435712 0.0
128 1 54.7049132 50.60173832 0.0
129 1 -18.2439196 11.77599752 0.0
130 1 -24.89439176 36.71450944 0.0
131 1 -29.85557536 -47.95085204 0.0
132 1 -29.97673072 -29.8062028 0.0
133 1 -19.36011296 -34.57958392 0.0
134 1 44.92179296 -34.79528248 0.0
135 1 -29.99890752 23.29135928 0.0
136 1 54.87917616 -15.52539408 0.0
137 1 -48.942925352 -35.4484476 0.0
138 1 -32.68008264 56.38147928 0.0
139 1 -36.43286408 -14.7090544 0.0
140 1 -39.53971704 19.39349488 0.0
141 1 -30.35607072 46.59894264 0.0
142 1 -22.36308512 -45.62841584 0.0
143 1 -45.14717928 31.91673384 0.0
144 1 -30.36038936 -10.0420052 0.0
145 1 0.07925288 -35.53505384 0.0
146 1 53.00383592 4.7312452 0.0
147 1 52.64573896 28.32701024 0.0
148 1 33.889652 -57.2734430152 0.0
149 1 -49.50141888 -15.49411312 0.0
150 1 37.22072408 -24.59687248 0.0
151 1 54.15609576 -5.84031864 0.0
152 1 -51.33619892 19.57697872 0.0
153 1 26.42634176 40.2468068 0.0
154 1 -30.6115708 -3.43133456 0.0
155 1 57.1274368 -30.08936552 0.0
156 1 39.35634992 -11.2512244 0.0
157 1 -34.66327216 42.11164224 0.0
158 1 57.4974392 -4.7656776 0.0
159 1 -52.740912448 29.42674608 0.0
160 1 43.63880672 -57.5144149568 0.0
161 1 -18.7726612 -56.866439208 0.0
162 1 -39.99609224 -50.76864792 0.0
163 1 -42.87335696 -36.21506456 0.0
164 1 -46.48187248 -4.8660568 0.0
165 1 -45.85940472 -12.88565456 0.0
166 1 -29.75869776 -23.81881696 0.0
167 1 39.72413464 -0.34747544 0.0
168 1 51.66762536 -34.8432544 0.0
169 1 -53.816954128 -47.679466368 0.0
170 1 40.4143 -7.50369536 0.0
171 1 43.80746712 -22.13734864 0.0
172 1 -44.30551136 21.80598056 0.0
173 1 45.61394256 4.23530192 0.0
174 1 28.34918704 -57.868748864 0.0
175 1 -48.537988656 -16.49463696 0.0
176 1 56.38649824 4.15032976 0.0
177 1 -28.09065224 8.00138944 0.0
178 1 -42.96906736 31.19878912 0.0
179 1 -24.71184168 -17.53041024 0.0
180 1 -29.18245112 -2.24090728 0.0
181 1 44.90019976 21.45395304 0.0
182 1 -43.4688624 -52.92645056 0.0
183 1 -13.28553728 -56.107105576 0.0
184 1 -12.22968816 49.33777744 0.0
185 1 -40.18191048 30.0799112 0.0
186 1 -54.079025544 26.2223152 0.0
187 1 -24.11878736 -18.47129016 0.0
188 1 -26.36448016 56.92481088 0.0
189 1 -50.22905136 -47.626732272 0.0
190 1 -38.5917172 -38.31298984 0.0
191 1 7.66045032 49.04189224 0.0
192 1 53.64649624 32.22931 0.0
193 1 36.09729408 -30.6821864 0.0
194 1 32.4236488 -32.15425904 0.0
195 1 -14.45413792 10.99537416 0.0
196 1 -53.414386848 32.97970288 0.0
197 1 -37.40444136 -13.07252328 0.0
198 1 -36.16289072 49.91612504 0.0
199 1 -32.00905936 -24.0373168 0.0
200 1 -38.67085336 -35.37479728 0.0
201 1 -38.98541376 42.27318272 0.0
202 1 53.31209344 7.02677744 0.0
203 1 -36.59848976 -7.31414208 0.0
204 1 -44.58598952 -42.8700888 0.0
205 1 47.4665224 -16.42985736 0.0
206 1 -30.75070104 17.31903032 0.0
207 1 -1.25252232 14.756326 0.0
208 1 -43.98920016 -15.60009488 0.0
209 1 -44.84405744 -20.04806064 0.0
210 1 14.61241024 -18.92404704 0.0
211 1 40.74730216 -0.9215044 0.0
212 1 -7.70795536 5.0545596 0.0
213 1 52.80156016 -27.68971904 0.0
214 1 -45.43489408 24.90057792 0.0
215 1 50.2111932 -3.94035048 0.0
216 1 50.47019488 -19.59448672 0.0
217 1 -46.64843192 -26.79272584 0.0
218 1 54.37938112 -3.1088372 0.0
219 1 50.95610024 -57.4344033968 0.0
220 1 -55.621468672 -45.06279072 0.0
221 1 -28.54714416 6.99841448 0.0
222 1 15.22740792 -10.37629128 0.0
223 1 -56.130367872 -19.56950864 0.0
224 1 49.07282304 24.62581904 0.0
225 1 42.68835576 29.57369656 0.0
226 1 -51.919752232 28.66713232 0.0
227 1 -56.428038888 -6.97903896 0.0
228 1 8.07200504 53.6264204 0.0
229 1 -32.42026392 26.4032312 0.0
230 1 31.53214144 -5.51256888 0.0
231 1 27.05557928 -10.15428984 0.0
232 1 -25.58537416 28.27542 0.0
233 1 44.36982408 5.05024096 0.0
234 1 -40.68929232 25.41472952 0.0
235 1 -37.19773024 -27.02266424 0.0
236 1 48.77226904 -31.99890472 0.0
237 1 -42.94268864 -3.3650376 0.0
238 1 -34.85095792 9.5611188 0.0
239 1 42.214706 -36.52215488 0.0
240 1 -49.65700664 -56.567869448 0.0
241 1 44.56673072 30.6804356 0.0
242 1 -45.05427016 -17.7758724 0.0
243 1 32.2158872 -13.26557816 0.0
244 1 53.71956296 13.0983184 0.0
245 1 33.25796336 -20.14773952 0.0
246 1 -27.57416624 23.0481148 0.0
247 1 -39.59340824 4.17600816 0.0
248 1 -25.37469456 4.82427104 0.0
249 1 -56.042967936 27.32520248 0.0
250 1 -52.70293176 -13.78649952 0.0
251 1 54.56998488 -22.87408528 0.0
252 1 -42.93568544 -15.04707552 0.0
253 1 -37.8908136 -33.24290648 0.0
254 1 54.21492264 -17.06142928 0.0
255 1 -56.535981544 -14.30882152 0.0
256 1 -56.307548832 -57.234947592 0.0
257 1 -56.61229308 34.26887528 0.0
258 1 -45.15850112 -2.74268656 0.0
259 1 -56.31138892 10.99957608 0.0
260 1 47.39614024 -31.70722144 0.0
261 1 35.051016 26.3477892 0.0
262 1 55.99863768 -49.695944432 0.0
263 1 48.70165344 5.6994376 0.0
264 1 20.2269924 -43.18569968 0.0
265 1 54.53835376 13.93671816 0.0
266 1 -37.7962704 -51.667578672 0.0
267 1 -48.167916224 -54.886891352 0.0
268 1 -30.91165792 -26.74382016 0.0
269 1 -13.679584 -54.864049248 0.0
270 1 -49.627604872 22.83895256 0.0
271 1 30.81011152 6.69050712 0.0
272 1 -34.19615872 -1.45234696 0.0
273 1 14.97610976 48.56334024 0.0
274 1 -30.05341576 -40.90767544 0.0
275 1 -50.436439456 8.26482648 0.0
276 1 -33.61115808 50.38475584 0.0
277 1 -22.13641488 29.49035848 0.0
278 1 2.70767056 37.22095752 0.0
279 1 32.60386448 48.74507328 0.0
280 1 -25.24875368 50.27643968 0.0
281 1 -50.04871896 -3.30060816 0.0
282 1 57.26434936 -9.6364032 0.0
283 1 54.3815988 44.90848688 0.0
284 1 14.12825568 -41.36043232 0.0
285 1 48.3232472 1.6685124 0.0
286 1 -48.520492328 -13.64771944 0.0
287 1 -35.56131584 20.81899624 0.0
288 1 -57.7326930288 48.48513784 0.0
289 1 -51.789749496 -19.51465024 0.0
290 1 -37.70954744 -1.60478328 0.0
291 1 25.00457544 37.58687472 0.0
292 1 -41.40548624 18.72235488 0.0
293 1 -12.950084 -5.93042648 0.0
294 1 20.47000344 -45.30101624 0.0
295 1 -39.99924368 8.57086632 0.0
296 1 40.8385772 28.55064576 0.0
297 1 1.61505464 35.03957744 0.0
298 1 -27.31761568 0.36626736 0.0
299 1 35.48182952 22.93944848 0.0
300 1 40.536856 -57.9246799208 0.0
301 1 -25.3387448 -32.7265372 0.0
302 1 -48.95067556 21.56717144 0.0
303 1 33.4000116 -42.95284328 0.0
304 1 -11.04147856 42.97373616 0.0
305 1 -57.3320504616 -39.98056848 0.0
306 1 51.69272016 49.91799256 0.0
307 1 53.77278728 22.0875092 0.0
308 1 -43.31724312 44.28391816 0.0
309 1 -41.88625592 35.50820824 0.0
310 1 12.5047972 31.5295736 0.0
311 1 -51.353520168 21.39897792 0.0
312 1 35.76685976 38.231636 0.0
313 1 -39.89944808 20.51377344 0.0
314 1 -13.06750432 23.58129176 0.0
315 1 12.83884984 38.0454676 0.0
316 1 52.90835896 48.033198 0.0
317 1 24.42237608 -44.54070216 0.0
318 1 -56.886538392 47.61020472 0.0
319 1 -51.330934848 54.61935744 0.0
320 1 53.5272084 36.81605584 0.0
321 1 -28.34160024 -50.160396656 0.0
322 1 -19.78193904 -10.1085356 0.0
323 1 27.88102312 -43.74700616 0.0
324 1 -17.866914 -7.11898624 0.0
325 1 -11.61153904 7.83354608 0.0
326 1 -49.719195056 32.0524792 0.0
327 1 55.67298888 23.96156552 0.0
328 1 -26.402064 -25.91720912 0.0
329 1 -29.22050184 48.49552592 0.0
330 1 -28.7440508 39.42136296 0.0
331 1 -13.27293152 8.51787544 0.0
332 1 -20.30507808 38.4925052 0.0
333 1 15.23744584 43.47014632 0.0
334 1 -29.8050356 44.55015648 0.0
335 1 -37.78973408 39.39778552 0.0
336 1 2.11916832 40.07417792 0.0
337 1 -51.228804848 -23.23755136 0.0
338 1 -40.55716528 26.53232352 0.0
339 1 47.19783296 2.50971344 0.0
340 1 -18.6804524 -43.68934648 0.0
341 1 -21.92666904 30.81162888 0.0
342 1 -19.9439464 -15.39256672 0.0
343 1 -21.00983344 45.179394 0.0
344 1 28.48516584 22.80265264 0.0
345 1 2.01015184 13.11897784 0.0
346 1 53.61054648 16.09883944 0.0
347 1 -29.61980096 -5.7414568 0.0
348 1 -20.53700072 42.55797952 0.0
349 1 -43.63075304 51.24148064 0.0
350 1 -29.9958728 9.47579648 0.0
351 1 49.46430192 47.80255928 0.0
352 1 -45.2254984 16.01421744 0.0
353 1 -41.06431368 -6.28793984 0.0
354 1 -38.09297264 -19.03691528 0.0
355 1 -25.2599588 51.41854488 0.0
356 1 -3.29220432 28.20247 0.0
357 1 -22.37604104 35.27558528 0.0
358 1 -25.69135592 45.92336728 0.0
359 1 35.95839728 16.87736184 0.0
360 1 -45.33241392 -24.87198152 0.0
361 1 -12.74383976 51.83628576 0.0
362 1 50.56170336 41.18663624 0.0
363 1 -52.955969048 -50.91495644 0.0
364 1 -22.68663296 17.6702408 0.0
365 1 -36.32419776 19.94838176 0.0
366 1 -20.06661912 0.37840624 0.0
367 1 -23.82967192 -2.36428032 0.0
368 1 -32.60935032 57.50315848 0.0
369 1 -51.945804136 -46.16369376 0.0
370 1 -48.212818408 -7.39082712 0.0
371 1 25.16728312 25.11837744 0.0
372 1 -36.37742208 -0.21406448 0.0
373 1 -36.31194216 26.40253088 0.0
374 1 -26.83953056 -53.740735968 0.0
375 1 -52.186118944 48.39082808 0.0
376 1 -22.36145104 -21.75170576 0.0
377 1 -56.7621032 -33.47751368 0.0
378 1 -58.113148872 54.74553176 0.0
379 1 45.06851 54.76222272 0.0
380 1 -46.18365288 -43.17682896 0.0
381 1 -45.49640552 45.78435376 0.0
382 1 -11.34308304 31.57264328 0.0
383 1 51.99128992 -44.50148424 0.0
384 1 16.4831984 56.19764528 0.0
385 1 -50.818697456 28.90990992 0.0
386 1 -43.43828176 24.63562352 0.0
387 1 55.04701952 -5.167778 0.0
388 1 -55.768967736 48.08490496 0.0
389 1 -54.133230312 11.06482256 0.0
390 1 29.54615064 45.35599136 0.0
391 1 -51.112084848 7.2092108 0.0
392 1 41.23297408 24.65663312 0.0
393 1 -41.83746696 -43.48275208 0.0
394 1 -41.18045008 54.9529432 0.0
395 1 -52.97500608 -53.852892216 0.0
396 1 57.69189472 57.49650544 0.0
397 1 51.44480688 26.982746 0.0
398 1 39.22282224 4.11449672 0.0
399 1 -9.38685584 3.36667168 0.0
400 1 -13.36992584 39.19947824 0.0
401 1 36.98168152 44.81616136 0.0
402 1 37.6807176 30.31486856 0.0
403 1 48.81884032 -45.36416176 0.0
404 1 4.2987976 26.95916856 0.0
405 1 -54.623664408 48.4002824 0.0
406 1 -18.8730404 -44.94443664 0.0
407 1 49.97646928 33.8365444 0.0
408 1 -36.50686456 54.50076992 0.0
409 1 43.99375224 53.58603528 0.0
410 1 26.0612416 24.2555832 0.0
411 1 -5.10498264 40.88036296 0.0
412 1 -33.87459512 -40.77041272 0.0
413 1 -27.63591112 48.91420056 0.0
414 1 39.27522952 -55.985646744 0.0
415 1 -17.62623736 -20.41211032 0.0
416 1 -26.45190344 -29.81052144 0.0
417 1 -22.78712888 26.5322068 0.0
418 1 -23.63089776 24.3699688 0.0
419 1 -30.12554872 -4.43559344 0.0
420 1 54.0921332 43.74805664 0.0
421 1 -44.34157784 7.93777704 0.0
422 1 -45.56818832 -46.59135584 0.0
423 1 -36.57082712 18.85704976 0.0
424 1 35.44482928 -55.758392904 0.0
425 1 57.73986664 34.53254576 0.0
426 1 -46.939636648 7.22520144 0.0
427 1 -27.73745752 -54.38224076 0.0
428 1 -41.08088792 47.64417024 0.0
429 1 43.6334376 36.73902064 0.0
430 1 -49.972757584 4.85076648 0.0
431 1 52.0839656 10.20821448 0.0
432 1 -21.2687184 -30.27156544 0.0
433 1 -43.69564936 -50.77483408 0.0
434 1 -53.933312296 45.66821736 0.0
435 1 -38.58027864 50.9838796 0.0
436 1 -28.87057528 -47.386032288 0.0
437 1 24.64286016 26.13325784 0.0
438 1 56.9581928 10.08554176 0.0
439 1 -48.170192264 56.33805944 0.0
440 1 14.04480088 24.6962012 0.0
441 1 56.37564328 -43.892556 0.0
442 1 -46.48759176 25.69894272 0.0
443 1 -32.12029352 24.31697792 0.0
444 1 -55.289003424 -49.337975864 0.0
445 1 30.41443072 36.82667736 0.0
446 1 36.78477488 46.30714264 0.0
447 1 -38.16125384 13.73479256 0.0
448 1 -13.50707184 -41.89442632 0.0
449 1 -10.20634696 -47.816997544 0.0
450 1 -53.639131208 43.58464864 0.0
451 1 -52.518654224 12.4522732 0.0
452 1 -19.07076408 56.83878824 0.0
453 1 -9.90159104 -56.107292328 0.0
454 1 36.7049384 37.38681664 0.0
455 1 -50.348432576 21.99950232 0.0
456 1 43.88240136 28.69000944 0.0
457 1 -8.400922 2.8549712 0.0
458 1 36.10231304 32.57106616 0.0
459 1 55.92043528 19.454306 0.0
460 1 -9.20138776 34.06403168 0.0
461 1 38.87394616 29.5616744 0.0
462 1 39.8808896 -44.99100792 0.0
463 1 39.73370568 -18.28383784 0.0
464 1 -34.86566464 19.68681224 0.0
465 1 19.42092408 11.27491856 0.0
466 1 -49.17302716 44.83483656 0.0
467 1 43.74408816 47.73848 0.0
468 1 -6.37314544 55.16934208 0.0
469 1 -21.6492256 14.75142376 0.0
470 1 -20.65558824 18.768576 0.0
471 1 -41.4898748 -23.43165672 0.0
472 1 32.03707216 29.67454264 0.0
473 1 -8.5631628 -43.18920128 0.0
474 1 48.08583872 22.23936192 0.0
475 1 -42.94140472 -46.796047704 0.0
476 1 29.17988328 -37.472956 0.0
477 1 -53.781167776 27.29777328 0.0
478 1 58.11512144 9.64889224 0.0
479 1 -40.22463 15.9451192 0.0
480 1 18.91319208 21.59740192 0.0
481 1 -30.83147128 45.59911912 0.0
482 1 32.29490664 8.56864864 0.0
483 1 -37.13843648 58.12644328 0.0
484 1 -48.413273336 -56.283469496 0.0
485 1 -20.95380784 -56.806643552 0.0
486 1 6.81504736 43.79404432 0.0
487 1 2.86675992 28.86147112 0.0
488 1 13.81334512 14.45950704 0.0
489 1 55.14343024 -54.70818136 0.0
490 1 26.55216592 49.22560952 0.0
491 1 25.93156568 2.44248272 0.0
492 1 43.94496328 17.76851904 0.0
493 1 -24.76658336 24.28931528 0.0
494 1 -32.15437576 10.3810768 0.0
495 1 -34.1236756 30.7580544 0.0
496 1 38.84243176 -43.0212412 0.0
497 1 43.16048816 26.06334256 0.0
498 1 -20.88214176 48.53556088 0.0
499 1 55.27964248 35.27605216 0.0
500 1 48.96485704 33.38121968 0.0
501 1 -56.500732104 12.17179504 0.0
502 1 -19.85022024 41.5908376 0.0
503 1 -11.14454232 33.98547912 0.0
504 1 -19.26918808 25.20089848 0.0
505 1 -19.38614152 -0.8503052 0.0
506 1 -33.84132992 57.68582528 0.0
507 1 -44.01172712 3.985988 0.0
508 1 27.88043952 34.80438664 0.0
509 1 -52.775484912 -57.8753528816 0.0
510 1 33.13120544 7.07346544 0.0
511 1 -42.0968188 51.51997456 0.0
512 1 -51.770444008 -50.391618976 0.0
513 1 31.46526088 52.62216152 0.0
514 1 31.49233992 19.5500164 0.0
515 1 6.22946312 -32.26479288 0.0
516 1 -23.02932288 28.4843488 0.0
517 1 -25.71890184 57.910628 0.0
518 1 -11.01813456 -56.139892224 0.0
519 1 -39.78412872 49.04434336 0.0
520 1 -47.088396288 -13.2611428 0.0
521 1 -17.16215864 12.53899616 0.0
522 1 31.80223152 13.91220696 0.0
523 1 56.11734192 10.85215872 0.0
524 1 0.53294352 23.88873224 0.0
525 1 -41.26588912 30.31848688 0.0
526 1 8.32061864 25.22424248 0.0
527 1 -27.34819632 46.69628712 0.0
528 1 36.40041592 48.13836272 0.0
529 1 48.36106448 40.1388408 0.0
530 1 51.71711464 -40.09367016 0.0
531 1 53.91075032 -56.688884744 0.0
532 1 -21.80948216 -32.63654608 0.0
533 1 -52.851901496 57.68792624 0.0
534 1 -38.53697552 9.025374 0.0
535 1 30.4831788 -36.463328 0.0
536 1 51.58300336 31.23298808 0.0
537 1 -49.798774752 -51.938742576 0.0
538 1 -32.15974488 12.16292432 0.0
539 1 -48.633127128 18.85296456 0.0
540 1 -2.1791624 56.96531272 0.0
541 1 -21.86329008 27.28294984 0.0
542 1 52.8076296 19.32719792 0.0
543 1 22.96734456 16.60645472 0.0
544 1 54.36280688 52.78591968 0.0
545 1 -47.128396232 -52.332194024 0.0
546 1 -56.637376208 45.24720832 0.0
547 1 -31.79814632 16.22221248 0.0
548 1 -0.83781616 10.96456008 0.0
549 1 41.04237032 36.89472512 0.0
550 1 -22.3746404 -24.8771172 0.0
551 1 49.603082 9.3953764 0.0
552 1 -57.528346656 -49.010132728 0.0
553 1 11.70689928 32.7738088 0.0
554 1 18.450514 -44.34636336 0.0
555 1 -40.94047376 -56.624093472 0.0
556 1 55.52440432 52.14606064 0.0
557 1 -14.75492536 57.76869648 0.0
558 1 4.40512952 32.29198864 0.0
559 1 -37.39603752 15.0405392 0.0
560 1 50.717758 12.00628608 0.0
561 1 -35.09957152 -13.57873792 0.0
562 1 -50.652021296 -34.77567352 0.0
563 1 39.05462872 45.40256264 0.0
564 1 17.12737608 -44.3209184 0.0
565 1 -49.939889232 9.87836376 0.0
566 1 -26.80253032 10.85857832 0.0
567 1 57.3188576 54.08676408 0.0
568 1 -33.664966 -18.44572848 0.0
569 1 -8.4802916 29.31761288 0.0
570 1 48.7002528 29.71586152 0.0
571 1 26.28382664 42.79842272 0.0
572 1 53.12837616 -47.851196504 0.0
573 1 -37.26286 29.11533712 0.0
574 1 43.35949576 -53.35901488 0.0
575 1 -2.83524552 46.38184344 0.0
576 1 43.78132184 29.830714 0.0
577 1 -42.98027248 25.96868264 0.0
578 1 53.23891 -24.85867544 0.0
579 1 -39.30090792 13.66604448 0.0
580 1 37.3107152 -45.84609864 0.0
581 1 0.50317992 16.07362792 0.0
582 1 12.02344392 23.45149912 0.0
583 1 -54.892237128 7.68461136 0.0
584 1 -49.89394824 -4.7370812 0.0
585 1 -49.684074008 43.79521152 0.0
586 1 46.41207392 16.59723384 0.0
587 1 -53.372636104 1.3060968 0.0
588 1 -52.09662972 5.00413656 0.0
589 1 31.31352488 15.14897208 0.0
590 1 -27.05091048 30.20550192 0.0
591 1 50.21049288 15.46493312 0.0
592 1 58.10601728 7.5097648 0.0
593 1 50.10509472 32.63619592 0.0
594 1 -13.32370472 28.99289784 0.0
595 1 -54.292751536 -24.76366536 0.0
596 1 -43.8452844 10.36380224 0.0
597 1 39.44505712 34.91527064 0.0
598 1 47.28163792 40.9056912 0.0
599 1 20.42705048 29.53517896 0.0
600 1 27.35309856 -48.88227764 0.0
601 1 18.44958024 58.0366856 0.0
602 1 -50.7912916 53.6001584 0.0
603 1 32.04851072 -46.41650928 0.0
604 1 -47.605605952 14.62723368 0.0
605 1 12.09709424 18.56805104 0.0
606 1 31.54042856 -34.09344512 0.0
607 1 -48.280189192 49.81562912 0.0
608 1 -9.97337384 55.1233544 0.0
609 1 46.08023896 51.7985852 0.0
610 1 -28.94854424 -54.515523328 0.0
611 1 57.31909104 -45.84563176 0.0
612 1 -7.42794408 54.79607152 0.0
613 1 52.52960256 45.3060352 0.0
614 1 25.6445512 -29.83351528 0.0
615 1 -56.922558184 -37.85031176 0.0
616 1 9.83506064 -45.65724568 0.0
617 1 31.89619112 -20.58660672 0.0
618 1 -55.522501784 -25.02721912 0.0
619 1 -52.972951808 30.6004824 0.0
620 1 44.67644752 3.61738624 0.0
621 1 -43.15535248 48.09062424 0.0
622 1 50.58481392 34.93709728 0.0
623 1 25.02815288 -43.59386952 0.0
624 1 -26.64274064 44.62333992 0.0
625 1 32.05843192 18.5870764 0.0
626 1 47.59456424 37.21407104 0.0
627 1 -43.49535784 -41.97811456 0.0
628 1 38.40239736 54.75650344 0.0
629 1 50.3483392 -42.27680104 0.0
630 1 26.61636192 5.84171928 0.0
631 1 42.3133344 -30.74474832 0.0
632 1 47.1175296 36.04570384 0.0
633 1 -32.86671792 48.1242396 0.0
634 1 33.54637848 -41.38856184 0.0
635 1 -52.292859384 47.26553056 0.0
636 1 20.62570792 -49.92622132 0.0
637 1 -51.492568704 -47.449026072 0.0
638 1 -48.319255376 55.07538248 0.0
639 1 1.96369728 -16.6722848 0.0
640 1 48.35044296 -30.7405464 0.0
641 1 -3.6772636 21.64899216 0.0
642 1 21.03259384 -29.60404376 0.0
643 1 -37.78249744 -34.70925984 0.0
644 1 33.25399488 44.59777824 0.0
645 1 57.16093544 19.44566872 0.0
646 1 41.24896472 44.8747548 0.0
647 1 10.49266112 -36.68427896 0.0
648 1 51.95125496 5.64119432 0.0
649 1 29.18431864 -38.61471104 0.0
650 1 45.6019204 40.89822112 0.0
651 1 30.56605 -22.49229416 0.0
652 1 -10.67731216 -48.829426824 0.0
653 1 19.29930184 48.04230216 0.0
654 1 33.06012296 51.51542248 0.0
655 1 -45.28946096 54.22799528 0.0
656 1 -35.85965216 -58.0455353104 0.0
657 1 -35.41973448 37.108206 0.0
658 1 26.95029784 54.34401496 0.0
659 1 47.93888824 -43.10913136 0.0
660 1 40.42783952 57.60937368 0.0
661 1 -5.44545488 45.7343976 0.0
662 1 43.17075952 -32.99639384 0.0
663 1 31.48101808 54.63674872 0.0
664 1 -4.44142944 -47.230561248 0.0
665 1 -51.10859492 -37.72121944 0.0
666 1 37.97473528 42.25520784 0.0
667 1 -49.42911084 49.43757304 0.0
668 1 17.8885072 -52.103446168 0.0
669 1 -55.69639124 54.79642168 0.0
670 1 -15.46154824 22.96489344 0.0
671 1 52.53240384 15.15294056 0.0
672 1 -15.35089768 -24.14259824 0.0
673 1 34.55332192 37.91870968 0.0
674 1 24.96839224 27.92164168 0.0
675 1 41.213832 56.68763584 0.0
676 1 9.41953744 37.89466536 0.0
677 1 -58.239760892 -45.736732 0.0
678 1 25.89619952 -49.553546032 0.0
679 1 57.8919528 -52.307437712 0.0
680 1 -43.22678512 -55.305974512 0.0
681 1 -39.65982192 1.51339152 0.0
682 1 57.45168496 25.26100928 0.0
683 1 -20.06673584 37.41272848 0.0
684 1 -30.8251684 53.23412448 0.0
685 1 49.13515152 -34.94678504 0.0
686 1 20.39483576 32.98670608 0.0
687 1 37.38845072 -38.5998876 0.0
688 1 -10.28279856 40.40006016 0.0
689 1 -43.93037328 34.27471128 0.0
690 1 35.72519072 42.50837352 0.0
691 1 -49.391036776 47.22351136 0.0
692 1 51.64930032 41.50364776 0.0
693 1 -33.25376144 49.28805472 0.0
694 1 42.22836224 48.33246808 0.0
695 1 -54.781201392 53.95883896 0.0
696 1 -48.123585968 41.06197928 0.0
697 1 -18.6483544 -49.939539072 0.0
698 1 45.17099016 -39.1181244 0.0
699 1 -15.79676808 42.83355544 0.0
700 1 8.80173848 -19.16449024 0.0
701 1 -23.71657024 -31.40048128 0.0
702 1 -7.96754064 -46.945239208 0.0
703 1 -50.95796776 41.92162208 0.0
704 1 49.49068064 40.64774 0.0
705 1 -43.10773072 29.1811672 0.0
706 1 -45.58884776 -38.2392228 0.0
707 1 55.07596608 -35.31398616 0.0
708 1 30.49765208 58.3372396 0.0
709 1 38.16580592 35.500388 0.0
710 1 57.86382328 -56.521286496 0.0
711 1 17.18795376 -54.5683508 0.0
712 1 -51.720604568 -57.376009548 0.0
713 1 -7.51256608 44.68473464 0.0
714 1 -9.90801064 -13.7134328 0.0
715 1 -32.72618704 38.44324936 0.0
716 1 -57.5800874648 -54.240110816 0.0
717 1 -51.046021328 5.29348544 0.0
718 1 -14.05472208 -56.935409056 0.0
719 1 37.54263784 -20.32492048 0.0
720 1 53.05180784 17.31412808 0.0
721 1 28.03135848 17.23405816 0.0
722 1 30.0238856 -43.27125544 0.0
723 1 55.85588912 46.44568928 0.0
724 1 42.35862176 -1.56089656 0.0
725 1 53.31664552 44.52424464 0.0
726 1 5.2337248 -30.86987216 0.0
727 1 21.33443176 46.77915832 0.0
728 1 -52.175742536 -44.89214608 0.0
729 1 34.89005912 -51.356017976 0.0
730 1 49.75972024 -56.98918196 0.0
731 1 57.15159784 -28.95029504 0.0
732 1 50.0075168 22.69515352 0.0
733 1 7.38148952 39.1181244 0.0
734 1 -48.26582096 -48.569269616 0.0
735 1 42.76667488 53.77874 0.0
736 1 36.41535608 30.71626864 0.0
737 1 -41.70382256 34.20619664 0.0
738 1 -13.14885816 -15.0527948 0.0
739 1 30.15542904 28.39307376 0.0
740 1 46.33994096 -46.39690032 0.0
741 1 20.45844816 -38.59265096 0.0
742 1 41.30207232 -35.8966524 0.0
743 1 25.16634936 -48.59164484 0.0
744 1 55.67964192 38.88164968 0.0
745 1 12.97914728 28.50138992 0.0
746 1 -34.45446008 -47.838415664 0.0
747 1 16.1289532 -57.545767116 0.0
748 1 -4.98826264 -35.255276 0.0
749 1 -28.97772424 51.85391048 0.0
750 1 -56.32516188 43.3077888 0.0
751 1 48.31262568 49.918226 0.0
752 1 55.41818912 -45.48391648 0.0
753 1 -33.98641288 -32.69665688 0.0
754 1 -48.518274648 48.52435576 0.0
755 1 31.97731152 32.63117696 0.0
756 1 16.55649856 17.90274704 0.0
757 1 1.87195536 -48.018794752 0.0
758 1 -7.34915808 41.82381072 0.0
759 1 42.36083944 52.64527208 0.0
760 1 27.02931728 -21.47624656 0.0
761 1 21.28762704 52.38358584 0.0
762 1 -25.3947704 49.07153912 0.0
763 1 -56.6016132 28.28148944 0.0
764 1 -38.2508948 26.696782 0.0
765 1 26.88726904 -0.58103216 0.0
766 1 -31.43129536 11.29756224 0.0
767 1 -34.99008816 28.5345384 0.0
768 1 -42.22310984 38.73096416 0.0
769 1 -25.8003724 -24.94353088 0.0
770 1 -39.2932044 58.15188824 0.0
771 1 54.64760368 46.15248864 0.0
772 1 23.2646304 -53.204512616 0.0
773 1 -38.526354 -32.15764392 0.0
774 1 -10.23155848 37.6077676 0.0
775 1 -50.420623896 46.2975716 0.0
776 1 -28.59978488 34.10721808 0.0
777 1 39.59270792 23.11966416 0.0
778 1 -19.6550644 -11.25285848 0.0
779 1 -28.47080928 -53.399364984 0.0
780 1 47.01925136 -37.74036152 0.0
781 1 26.1762108 -34.1481868 0.0
782 1 53.63470752 -52.88402284 0.0
783 1 -2.29086344 37.01027792 0.0
784 1 -36.68416224 -56.84100592 0.0
785 1 56.67876512 -50.612196432 0.0
786 1 -1.37974712 49.68501944 0.0
787 1 40.93673872 55.11074864 0.0
788 1 43.18534952 -42.46833856 0.0
789 1 -1.6130704 9.30223384 0.0
790 1 -57.7957615136 38.62825056 0.0
791 1 -47.186791248 53.37302128 0.0
792 1 21.03854656 56.0979664 0.0
793 1 -36.41593968 -44.811726 0.0
794 1 46.95458848 46.67971288 0.0
795 1 -26.43171088 -19.0113536 0.0
796 1 41.71817912 -38.05783992 0.0
797 1 -36.8286616 -46.95423832 0.0
798 1 27.89526296 -17.66767296 0.0
799 1 -8.90235112 -38.5444456 0.0
800 1 13.23394704 -37.87260528 0.0
801 1 -39.4583632 45.6381036 0.0
802 1 29.75496272 30.28919016 0.0
803 1 55.01608872 47.65362456 0.0
804 1 14.23201976 -8.97833584 0.0
805 1 -31.03573128 26.57282536 0.0
806 1 23.14405864 37.91252352 0.0
807 1 26.2730884 -48.333133384 0.0
808 1 8.56362968 43.79346072 0.0
809 1 41.8277792 -51.337412808 0.0
810 1 7.18189832 40.7212736 0.0
811 1 7.99870488 46.9611248 0.0
812 1 -55.145974736 10.63237496 0.0
813 1 41.502714 -7.32604752 0.0
814 1 -6.22140944 -52.774609512 0.0
815 1 35.87902768 -22.938398 0.0
816 1 17.62390296 42.73539392 0.0
817 1 24.94037944 42.5012536 0.0
818 1 54.18877736 -50.993427296 0.0
819 1 -53.64486216 -39.42906648 0.0
820 1 35.03327456 -46.974851072 0.0
821 1 32.4785072 40.90615808 0.0
822 1 -44.92517784 29.86853128 0.0
823 1 32.43543752 -49.96398024 0.0
824 1 -14.04596808 1.77227648 0.0
825 1 45.5447276 14.39951296 0.0
826 1 -42.56159784 57.2027212 0.0
827 1 7.46272664 52.67130064 0.0
828 1 -50.751104904 -56.67987396 0.0
829 1 54.35918856 23.50425656 0.0
830 1 17.14243296 -29.98198312 0.0
831 1 -35.4554508 -48.509392256 0.0
832 1 29.82616192 -20.4645176 0.0
833 1 23.91499424 -48.647110184 0.0
834 1 -33.60322112 -52.425791792 0.0
835 1 14.86055696 47.4256704 0.0
836 1 35.20788768 37.04961256 0.0
837 1 43.01528848 40.0956544 0.0
838 1 41.33977288 43.53691016 0.0
839 1 47.78213328 -44.48280904 0.0
840 1 -49.516615824 54.23418144 0.0
841 1 39.32728664 -58.344351583 0.0
842 1 55.32913176 14.76508 0.0
843 1 -33.35180624 54.06680496 0.0
844 1 -47.926130744 39.97064728 0.0
845 1 -55.749813984 19.84543472 0.0
846 1 24.01992552 27.14393632 0.0
847 1 36.11526896 -46.17256448 0.0
848 1 52.84941536 -40.17642464 0.0
849 1 -24.60796088 55.6661024 0.0
850 1 -33.15583336 6.73719512 0.0
851 1 50.75942704 58.1773332 0.0
852 1 34.49752976 57.67181888 0.0
853 1 56.21900504 16.32410904 0.0
854 1 -27.5675132 -35.52665 0.0
855 1 37.89268112 -51.948196896 0.0
856 1 -36.61471384 -33.44541568 0.0
857 1 -47.944817616 5.52412416 0.0
858 1 8.44329136 28.9588156 0.0
859 1 55.3795548 37.59948048 0.0
860 1 23.18456048 -47.630023776 0.0
861 1 13.1788552 35.80596096 0.0
862 1 -34.8514248 -39.66122256 0.0
863 1 -19.78905896 26.19990496 0.0
864 1 -11.68939128 -9.3411016 0.0
865 1 -42.23069664 55.82612552 0.0
866 1 -1.68030112 -37.13516832 0.0
867 1 -40.47464424 50.42198952 0.0