# LAMMPS data file written by Ovito 3.7.11
9304 atoms
1 atom types
-58.36 58.36 xlo xhi
-58.36 58.36 ylo yhi
-0.5 0.5 zlo zhi

Atoms  # atomic

1 1 -25.19179432 -53.167162216 0.0
2 1 -44.44394128 -58.3316547814 0.0
3 1 -11.19041328 1.3352768 0.0
4 1 -6.88087744 0.99725568 0.0
5 1 31.20649264 -37.25165488 0.0
6 1 -40.38698752 19.14289704 0.0
7 1 -45.103526 -21.40563096 0.0
8 1 -46.10638424 -33.67068528 0.0
9 1 -38.675172 40.40169424 0.0
10 1 -54.885689136 -9.94839576 0.0
11 1 -9.24457416 -21.08500112 0.0
12 1 -48.903940872 -3.26010632 0.0
13 1 -36.77018488 -56.539086296 0.0
14 1 -46.50778432 20.73203984 0.0
15 1 -40.2252136 23.01298208 0.0
16 1 51.10165008 21.2056896 0.0
17 1 -40.42410448 -13.89411536 0.0
18 1 8.78948288 -32.22335728 0.0
19 1 36.58868528 9.2658172 0.0
20 1 36.7282824 10.45332648 0.0
21 1 23.27268408 -55.800984032 0.0
22 1 -19.670238 -6.77232784 0.0
23 1 -39.68701768 10.73310432 0.0
24 1 -40.6133076 29.76336656 0.0
25 1 -32.53488296 49.31875208 0.0
26 1 -20.85074408 14.83674608 0.0
27 1 -36.60759392 9.13427376 0.0
28 1 44.04697656 -17.59939176 0.0
29 1 35.0095804 -2.62993504 0.0
30 1 21.4718112 -0.88625496 0.0
31 1 57.5032752 -55.28629552 0.0
32 1 24.07139904 12.02437768 0.0
33 1 -26.70775368 12.1925712 0.0
34 1 54.5981144 11.27001632 0.0
35 1 49.48040928 -16.7008812 0.0
36 1 -11.02455416 -9.67305328 0.0
37 1 43.07271472 11.76689336 0.0
38 1 20.11961 -42.60910288 0.0
39 1 -43.73545088 7.20419184 0.0
40 1 -26.50057568 26.44513368 0.0
41 1 50.4446332 57.78643792 0.0
42 1 5.26827392 -32.93243128 0.0
43 1 50.767364 30.39785648 0.0
44 1 -56.958239488 23.71096768 0.0
45 1 52.28904264 -40.9517956 0.0
46 1 36.26105224 -51.313917072 0.0
47 1 49.54110368 -41.3795744 0.0
48 1 -56.86837676 8.34221184 0.0
49 1 47.28899128 -28.1890472 0.0
50 1 55.26330168 -26.6915296 0.0
51 1 24.71686064 -46.08432416 0.0
52 1 -22.958824 39.7454944 0.0
53 1 42.45526592 -56.346008072 0.0
54 1 -3.79141576 5.68531448 0.0
55 1 -30.15332808 29.23625904 0.0
56 1 -17.3101596 4.87737864 0.0
57 1 -26.07676536 15.52212592 0.0
58 1 42.39667248 -16.82297032 0.0
59 1 35.91789544 -58.0892189376 0.0
60 1 -8.02461672 17.56215808 0.0
61 1 -21.72089168 -5.89214232 0.0
62 1 34.06274776 -13.62425872 0.0
63 1 -36.60234152 53.527792 0.0
64 1 -9.57465832 -25.39430352 0.0
65 1 -3.22474016 -26.294098 0.0
66 1 -35.48556456 -6.74198064 0.0
67 1 -45.28817704 -55.531069032 0.0
68 1 17.55632208 -4.60763872 0.0
69 1 4.9320036 -36.01267208 0.0
70 1 -40.81068112 -3.4835084 0.0
71 1 45.68269064 29.6311228 0.0
72 1 -28.44664824 -35.72238944 0.0
73 1 -20.13408328 45.62794896 0.0
74 1 -49.371241064 -34.31836456 0.0
75 1 -49.301687616 50.12867216 0.0
76 1 -2.61020936 57.32107528 0.0
77 1 -7.16882568 -18.59781464 0.0
78 1 -21.3259112 24.72911624 0.0
79 1 0.56982704 9.73724928 0.0
80 1 -11.18691168 -35.12244864 0.0
81 1 -39.693554 34.70213992 0.0
82 1 -5.946884 -9.86890944 0.0
83 1 -44.7965524 7.54734864 0.0
84 1 18.17843968 -55.261831008 0.0
85 1 -56.76980672 12.92055384 0.0
86 1 -56.838391392 47.61055488 0.0
87 1 -56.45518796 -4.35552352 0.0
88 1 -12.09032448 31.70313624 0.0
89 1 -36.16429136 -7.65729888 0.0
90 1 46.79783352 -1.89039712 0.0
91 1 -21.03772952 41.10481552 0.0
92 1 23.69077512 -18.55812984 0.0
93 1 -7.57547816 -36.97958056 0.0
94 1 -5.7729712 32.4913464 0.0
95 1 56.92329352 -18.19758176 0.0
96 1 -20.83055152 23.5984496 0.0
97 1 -25.1111408 -34.20164456 0.0
98 1 -57.145656792 -20.25839008 0.0
99 1 -57.2275463768 19.86469352 0.0
100 1 -7.54443064 13.63091176 0.0
101 1 -26.09999264 -20.154626 0.0
102 1 14.69889976 -33.25154376 0.0
103 1 -34.18507032 -38.59591912 0.0
104 1 -28.8963704 32.9074532 0.0
105 1 -30.85691624 -35.64558768 0.0
106 1 -7.46704528 31.67057136 0.0
107 1 13.70502896 -32.70576104 0.0
108 1 -13.5622804 -47.171442568 0.0
109 1 -42.3594388 37.70616256 0.0
110 1 42.96078024 -17.84800536 0.0
111 1 -31.15070048 17.05174152 0.0
112 1 42.08316256 -29.4974784 0.0
113 1 -53.513657208 -51.465221208 0.0
114 1 44.96719704 33.85673696 0.0
115 1 47.25455888 -0.7505096 0.0
116 1 -17.7951312 22.33705656 0.0
117 1 -43.75202512 42.52249664 0.0
118 1 -19.86912888 10.78446112 0.0
119 1 -38.217046 -26.74942272 0.0
120 1 6.78481688 -17.11897224 0.0
121 1 -40.82153608 5.45234136 0.0
122 1 19.79711264 -37.80187296 0.0
123 1 -36.90126144 16.02787368 0.0
124 1 -5.100664 23.145576 0.0
125 1 50.8251404 55.27520712 0.0
126 1 31.19715504 -19.98876688 0.0
127 1 16.79845912 -13.31646808 0.0
128 1 -56.636757592 37.04704472 0.0
129 1 54.49435032 48.38195736 0.0
130 1 49.34127904 -24.57738024 0.0
131 1 -26.64180688 9.7998112 0.0
132 1 -21.39979496 -36.9144508 0.0
133 1 54.61188736 -49.211521416 0.0
134 1 -28.73751448 51.64299744 0.0
135 1 -46.765840568 13.52563032 0.0
136 1 -34.93126128 -8.14693928 0.0
137 1 45.41353432 -51.90836036 0.0
138 1 51.12966288 -21.36466224 0.0
139 1 -51.293841232 36.69385 0.0
140 1 -46.918662064 -56.435847456 0.0
141 1 -50.1697576 19.90823008 0.0
142 1 -22.94528448 -17.64491256 0.0
143 1 -15.8704184 -53.293780072 0.0
144 1 -0.64697896 16.91646304 0.0
145 1 -23.58024128 -49.334380888 0.0
146 1 -58.0148321144 29.50809992 0.0
147 1 -46.723471208 -51.766732312 0.0
148 1 -36.97257736 5.50404832 0.0
149 1 -48.850891632 39.30277544 0.0
150 1 51.905384 -45.05392 0.0
151 1 21.97767568 4.957682 0.0
152 1 -1.53241688 12.0793528 0.0
153 1 -36.8531728 32.85866424 0.0
154 1 23.06200448 42.39235384 0.0
155 1 -48.835111088 -26.24145728 0.0
156 1 44.41522816 7.86587752 0.0
157 1 -28.23433456 15.24293168 0.0
158 1 44.55354136 -45.64732448 0.0
159 1 57.90852704 -14.5158828 0.0
160 1 -30.27144872 38.64914344 0.0
161 1 26.66071552 -20.26247528 0.0
162 1 -33.08906952 -12.13140992 0.0
163 1 -36.8385828 21.57300744 0.0
164 1 -28.50792624 43.88368528 0.0
165 1 47.51682872 54.1283164 0.0
166 1 9.46797624 -43.14648176 0.0
167 1 -4.28560824 46.44452208 0.0
168 1 -40.92915192 -19.76933328 0.0
169 1 -16.99594936 -52.966030312 0.0
170 1 27.51242136 2.98954936 0.0
171 1 34.77275552 49.04854528 0.0
172 1 47.80069176 36.16300744 0.0
173 1 25.68178488 -35.30873376 0.0
174 1 -32.19861264 -27.97474928 0.0
175 1 -18.43335616 4.64533928 0.0
176 1 -47.7157196 -3.64213088 0.0
177 1 46.58493624 -47.098165752 0.0
178 1 -21.54697888 -1.6539224 0.0
179 1 -19.29509992 12.56385752 0.0
180 1 -15.5342648 25.69439064 0.0
181 1 -41.06408024 -27.24991808 0.0
182 1 44.7755428 -33.07447952 0.0
183 1 5.49214288 -58.0835381752 0.0
184 1 -45.68794304 -43.80291504 0.0
185 1 -16.43440944 53.83955112 0.0
186 1 26.66164928 46.4353012 0.0
187 1 -28.1855456 -49.627896672 0.0
188 1 47.42123504 -57.7057890688 0.0
189 1 -24.09964528 2.91846688 0.0
190 1 -19.7962956 15.64771664 0.0
191 1 -51.255708808 49.22689344 0.0
192 1 -46.18692104 -10.89511168 0.0
193 1 2.75435856 33.59563432 0.0
194 1 -27.61781952 21.77259864 0.0
195 1 -57.014416824 -0.31829544 0.0
196 1 39.62037056 7.26103448 0.0
197 1 -16.2054048 -40.66746568 0.0
198 1 46.40950608 -20.45786456 0.0
199 1 -10.35119648 -3.1461876 0.0
200 1 -42.12039624 22.18777168 0.0
201 1 -9.37588416 -27.24956792 0.0
202 1 -21.96635384 -45.234836 0.0
203 1 54.95726184 -52.637113352 0.0
204 1 0.87925176 8.40769176 0.0
205 1 -47.5380134 -42.67738408 0.0
206 1 -49.41452084 -40.74275008 0.0
207 1 48.70480488 -46.577116 0.0
208 1 -47.808313576 33.82568944 0.0
209 1 -7.42619328 18.59536352 0.0
210 1 -35.41716664 0.618616 0.0
211 1 -24.13512816 -4.06675824 0.0
212 1 -50.043735016 -30.63246368 0.0
213 1 -43.29658368 27.65201848 0.0
214 1 53.23295728 -16.94996168 0.0
215 1 -41.63775904 53.63890944 0.0
216 1 -47.169750128 18.52661544 0.0
217 1 -34.39189816 57.59828528 0.0
218 1 7.97244288 52.82467072 0.0
219 1 3.5669632 29.78274208 0.0
220 1 7.83412968 -43.26040048 0.0
221 1 40.42527168 -6.27241608 0.0
222 1 47.37337984 39.98908904 0.0
223 1 16.88063 57.55066352 0.0
224 1 -33.28200768 32.27728192 0.0
225 1 39.18337088 -16.25372688 0.0
226 1 -33.9474284 5.20722936 0.0
227 1 -42.07826032 -20.15310864 0.0
228 1 -5.6854312 34.730036 0.0
229 1 -52.634884 -30.878276 0.0
230 1 10.37243952 19.48862168 0.0
231 1 -14.36578088 23.69847864 0.0
232 1 -27.98256952 11.81579904 0.0
233 1 -6.48356256 -7.70807208 0.0
234 1 -48.572572792 -36.54304776 0.0
235 1 31.99587 -4.58044296 0.0
236 1 36.1756132 36.51795296 0.0
237 1 57.89498752 -1.90288616 0.0
238 1 -49.968719072 7.89038872 0.0
239 1 -41.61056328 -14.02834336 0.0
240 1 2.46991192 13.15270992 0.0
241 1 -47.091466024 58.17044672 0.0
242 1 -53.583735896 -23.52094752 0.0
243 1 -13.72673888 21.5733576 0.0
244 1 -40.34496832 25.37411096 0.0
245 1 42.26582936 -45.52383472 0.0
246 1 12.91215 -2.7394184 0.0
247 1 8.89266336 -16.31360424 0.0
248 1 -4.671718 11.86645552 0.0
249 1 -50.734262208 -2.01470392 0.0
250 1 48.79748056 -55.798311144 0.0
251 1 -39.01377672 57.06720928 0.0
252 1 56.73163928 54.86563664 0.0
253 1 -41.61908384 -4.28607512 0.0
254 1 24.92042032 -15.19554336 0.0
255 1 -18.63574864 55.26645312 0.0
256 1 -7.52447152 -52.294271696 0.0
257 1 -32.78478048 -13.27549936 0.0
258 1 -5.34017344 -19.97651128 0.0
259 1 48.67305704 -43.31899392 0.0
260 1 -40.80040976 30.9663996 0.0
261 1 -11.86820632 -5.06494768 0.0
262 1 -40.9068584 9.54407768 0.0
263 1 -45.70498416 -23.80807872 0.0
264 1 -23.73536216 13.02291728 0.0
265 1 -29.88393832 -7.78417352 0.0
266 1 14.7359 45.02345608 0.0
267 1 -42.55832968 -18.97330288 0.0
268 1 -30.40310888 -5.57933272 0.0
269 1 -43.09839312 -39.65433608 0.0
270 1 46.83354984 13.53823608 0.0
271 1 -15.7647868 36.95401888 0.0
272 1 -52.204479 -29.51066776 0.0
273 1 -47.285442992 44.69173784 0.0
274 1 -35.73639584 -35.9771892 0.0
275 1 33.61792784 48.7399376 0.0
276 1 -23.40726224 -0.12010488 0.0
277 1 -48.54834172 22.47105112 0.0
278 1 -23.57207088 41.03163208 0.0
279 1 -40.28030544 49.77629448 0.0
280 1 47.36345864 21.80726448 0.0
281 1 -40.25544408 42.19101184 0.0
282 1 15.63336008 -33.87074336 0.0
283 1 -54.053370488 -31.11358352 0.0
284 1 -52.63144076 53.59303848 0.0
285 1 54.59916488 -20.39005024 0.0
286 1 -21.4175364 21.4694768 0.0
287 1 38.51164728 33.90179088 0.0
288 1 -42.37064392 -25.2692964 0.0
289 1 -40.0688088 -2.661216 0.0
290 1 49.02461768 -3.18108688 0.0
291 1 10.68956776 2.20052216 0.0
292 1 52.5047412 56.84590816 0.0
293 1 56.1522412 51.30649368 0.0
294 1 -25.68587008 -49.222971648 0.0
295 1 -47.082443568 52.5631012 0.0
296 1 3.13813392 -46.685082 0.0
297 1 -2.50119288 51.62303832 0.0
298 1 -16.16175152 46.32896928 0.0
299 1 -39.56422824 27.69578848 0.0
300 1 3.63034216 5.56240832 0.0
301 1 -37.29974352 8.25980752 0.0
302 1 16.80861376 50.04089872 0.0
303 1 46.80600392 -41.58932024 0.0
304 1 -54.204172728 -53.780210672 0.0
305 1 5.6399104 7.7974796 0.0
306 1 5.88899088 52.16205128 0.0
307 1 55.9053784 27.86293152 0.0
308 1 30.74007952 28.80906384 0.0
309 1 -11.78160008 54.10345504 0.0
310 1 -22.16594504 -25.63241232 0.0
311 1 -6.04539568 25.681318 0.0
312 1 21.06002304 18.16011464 0.0
313 1 -0.83734928 -20.06043296 0.0
314 1 33.63426864 -0.69845248 0.0
315 1 56.676314 2.80373112 0.0
316 1 54.08267888 -56.773635136 0.0
317 1 -52.561630528 8.59771192 0.0
318 1 -7.58574952 -13.76082112 0.0
319 1 -53.878138752 5.87755232 0.0
320 1 -16.12533488 7.10404608 0.0
321 1 -35.70196344 43.2319208 0.0
322 1 -50.662280984 54.58539192 0.0
323 1 -31.16937568 56.93986776 0.0
324 1 -29.12817632 23.4000256 0.0
325 1 55.199806 41.58546848 0.0
326 1 -38.558452 34.50313232 0.0
327 1 38.67727296 51.13643264 0.0
328 1 -32.55834368 1.7116988 0.0
329 1 -45.2249148 -1.76562344 0.0
330 1 42.48362888 -38.42340696 0.0
331 1 28.7242084 5.64843096 0.0
332 1 -15.85489464 39.18663904 0.0
333 1 -2.11053104 14.10724608 0.0
334 1 36.13581168 8.04340864 0.0
335 1 -8.50725392 -49.032613 0.0
336 1 -41.33918928 -22.16174312 0.0
337 1 -29.80410184 56.70922904 0.0
338 1 -52.17401508 37.35927072 0.0
339 1 -44.70574424 37.72238664 0.0
340 1 -35.10459048 15.00015408 0.0
341 1 50.96765552 36.8753496 0.0
342 1 18.71290056 48.98014736 0.0
343 1 35.40782904 -0.80233328 0.0
344 1 57.07946488 25.60358248 0.0
345 1 31.56155488 -42.89786816 0.0
346 1 -33.72822824 -9.92948712 0.0
347 1 -43.37210152 -5.663838 0.0
348 1 -34.83461712 -42.39959048 0.0
349 1 4.51904824 21.35018896 0.0
350 1 -17.39839992 23.52946808 0.0
351 1 -31.43958248 50.12295288 0.0
352 1 -23.05231672 -21.37971912 0.0
353 1 -8.46710224 -55.51214872 0.0
354 1 50.91641544 32.75618408 0.0
355 1 -49.931193592 34.46648224 0.0
356 1 -25.83398776 -24.87513296 0.0
357 1 1.02806976 15.88547528 0.0
358 1 -33.1525652 47.45975264 0.0
359 1 5.76865256 33.6807232 0.0
360 1 -30.52356392 -14.79811176 0.0
361 1 -42.24318568 24.22803728 0.0
362 1 -57.13420656 -28.0997564 0.0
363 1 -10.0309168 26.82995952 0.0
364 1 -29.42651264 37.81401184 0.0
365 1 51.32691968 -3.7980688 0.0
366 1 49.76030384 11.91757888 0.0
367 1 -33.635786 -44.48829488 0.0
368 1 -38.35582608 45.19421744 0.0
369 1 -23.24548832 14.01363664 0.0
370 1 -50.37594348 -46.6623216 0.0
371 1 -12.29248352 -55.536799984 0.0
372 1 -41.1595572 -10.78621192 0.0
373 1 55.10491264 29.02838072 0.0
374 1 10.78271032 6.64755416 0.0
375 1 26.09590744 13.08816376 0.0
376 1 36.35314432 18.43253912 0.0
377 1 -29.2039276 12.86639576 0.0
378 1 -33.48661784 54.48828088 0.0
379 1 -49.435110248 15.58247016 0.0
380 1 -12.20797824 4.93713928 0.0
381 1 -7.83704768 -0.01820832 0.0
382 1 -41.93597864 -32.23771384 0.0
383 1 -54.020898984 45.57717576 0.0
384 1 34.53733128 30.24530344 0.0
385 1 -20.6541876 -48.469345624 0.0
386 1 -49.010109384 32.68930352 0.0
387 1 52.34261712 7.24609432 0.0
388 1 -37.25772432 20.55124056 0.0
389 1 -28.1697884 -2.85648856 0.0
390 1 22.31709744 18.8374408 0.0
391 1 30.35280256 -16.35282216 0.0
392 1 -14.36846544 -54.02128416 0.0
393 1 -39.5628276 47.14892728 0.0
394 1 38.04756856 -24.24822984 0.0
395 1 -45.78178592 22.929644 0.0
396 1 -49.06371888 51.33357272 0.0
397 1 -56.879500176 29.38402656 0.0
398 1 -40.9798084 26.42155624 0.0
399 1 -26.98846528 8.70812904 0.0
400 1 43.02917816 -13.50485416 0.0
401 1 49.38528248 49.506788 0.0
402 1 7.34915808 6.99339552 0.0
403 1 -41.9246568 2.69774936 0.0
404 1 16.66925008 46.52774344 0.0
405 1 -58.020245588 -36.96965936 0.0
406 1 18.02728728 55.67999208 0.0
407 1 -2.48158392 -58.3092789738 0.0
408 1 27.09094544 -36.25720048 0.0
409 1 37.1467236 -29.66252048 0.0
410 1 45.34735408 56.7895324 0.0
411 1 35.25597632 -9.43167632 0.0
412 1 -3.62228848 -40.33656448 0.0
413 1 -19.833646 -26.85598808 0.0
414 1 47.3159536 26.85540448 0.0
415 1 -31.940428 -45.22678232 0.0
416 1 10.5269768 -8.03313728 0.0
417 1 -32.69630672 -57.776376656 0.0
418 1 34.55192128 47.93246864 0.0
419 1 -16.57902552 -22.27145992 0.0
420 1 -50.714629904 -35.34655104 0.0
421 1 -51.289522592 20.23376216 0.0
422 1 -29.49712824 45.94169232 0.0
423 1 -39.10341768 44.22042248 0.0
424 1 -13.4443932 45.08345016 0.0
425 1 -37.8272012 57.36169384 0.0
426 1 30.83812432 -46.829966536 0.0
427 1 -13.72195336 50.03482928 0.0
428 1 -4.77338112 44.1656808 0.0
429 1 -3.68741824 16.9051412 0.0
430 1 7.6988512 0.2982196 0.0
431 1 -9.52213432 19.66708656 0.0
432 1 -10.74034096 -23.15094512 0.0
433 1 -12.2725244 41.38167536 0.0
434 1 21.03049288 -9.69196192 0.0
435 1 -4.05333544 29.26508888 0.0
436 1 -28.44338008 -54.21573968 0.0
437 1 -14.6623664 -55.189266184 0.0
438 1 -43.66635264 -47.208547856 0.0
439 1 48.65683296 -57.3551656904 0.0
440 1 3.57525032 13.78614936 0.0
441 1 -25.62669304 -57.8606041424 0.0
442 1 -35.03362472 -9.2728204 0.0
443 1 34.0378864 35.05078256 0.0
444 1 -35.33919768 11.0813968 0.0
445 1 -27.44659128 31.71819312 0.0
446 1 -14.39250976 -56.530390656 0.0
447 1 -53.845982392 -12.33333552 0.0
448 1 38.09612408 -5.59252208 0.0
449 1 -27.70255824 -53.234953192 0.0
450 1 -28.31382088 37.90528688 0.0
451 1 -57.5473393344 57.35772536 0.0
452 1 -53.891514864 -52.647594808 0.0
453 1 -49.008592024 -51.053841568 0.0
454 1 -48.990757208 20.3046112 0.0
455 1 25.19132744 12.45355712 0.0
456 1 -18.64788752 20.62710856 0.0
457 1 47.40886272 52.004596 0.0
458 1 -25.05406472 -28.57842512 0.0
459 1 54.59904816 30.05738424 0.0
460 1 -19.02349248 36.42702808 0.0
461 1 -29.2377764 -51.850689008 0.0
462 1 29.27617728 -53.859253456 0.0
463 1 -43.05614048 -7.56742448 0.0
464 1 38.33283224 55.33426744 0.0
465 1 -56.94803816 28.20760568 0.0
466 1 -3.31554832 20.67297952 0.0
467 1 39.1665632 48.64411048 0.0
468 1 51.90701808 40.9255336 0.0
469 1 57.80312888 24.66865528 0.0
470 1 -57.6682810968 -4.47306056 0.0
471 1 -41.00361928 39.59726 0.0
472 1 53.2873488 32.31988472 0.0
473 1 51.26132304 -17.67969512 0.0
474 1 -24.30145416 28.77778288 0.0
475 1 -58.2562890276 41.08964192 0.0
476 1 55.39566216 -1.438574 0.0
477 1 -56.386953448 56.22892624 0.0
478 1 50.51711632 -27.85207656 0.0
479 1 28.93383752 30.16885184 0.0
480 1 -25.87297224 39.10446816 0.0
481 1 40.62894808 37.61395376 0.0
482 1 -49.870043984 21.00236336 0.0
483 1 -31.25749928 27.05184424 0.0
484 1 -11.72930952 36.37800568 0.0
485 1 -7.22590176 54.90940664 0.0
486 1 9.17979456 28.8987048 0.0
487 1 -54.991729256 55.859274 0.0
488 1 46.30702592 -0.1709948 0.0
489 1 9.54746256 12.67555856 0.0
490 1 -5.69616944 37.957344 0.0
491 1 -4.41341664 30.30307984 0.0
492 1 -9.477664 56.49002888 0.0
493 1 18.05261552 -6.91472624 0.0
494 1 -50.898697344 -41.27090808 0.0
495 1 -54.300455056 50.10100952 0.0
496 1 -44.54186936 -15.61468488 0.0
497 1 -14.23061912 -5.20127664 0.0
498 1 -3.74881296 -18.34908432 0.0
499 1 -45.40711472 1.8284188 0.0
500 1 -51.122963152 -16.48156432 0.0
501 1 -23.4087796 -56.774031984 0.0
502 1 -29.68154584 5.7111096 0.0
503 1 30.36400768 -36.27797664 0.0
504 1 -37.02451776 -0.84785408 0.0
505 1 -25.19669656 30.34043024 0.0
506 1 -24.34569104 33.67640456 0.0
507 1 48.58598392 16.57260592 0.0
508 1 4.72984456 -56.655094304 0.0
509 1 -45.3912408 43.8814676 0.0
510 1 -12.52977528 27.05067704 0.0
511 1 42.42561904 -40.08818432 0.0
512 1 -50.199661264 -39.82322992 0.0
513 1 43.50341152 48.46424496 0.0
514 1 30.89601744 27.47962304 0.0
515 1 58.26055456 45.72179184 0.0
516 1 -56.852537856 -6.61884104 0.0
517 1 -53.610067928 -44.12517896 0.0
518 1 26.57679384 40.4790796 0.0
519 1 -29.78367584 35.21629152 0.0
520 1 40.81955184 32.33330752 0.0
521 1 58.01182424 -57.386601888 0.0
522 1 -51.25630408 4.1032916 0.0
523 1 -15.30631064 -11.97010288 0.0
524 1 -14.83289432 7.20349152 0.0
525 1 34.15122152 -30.20491832 0.0
526 1 -35.93353592 10.16024256 0.0
527 1 -36.0822372 -23.13075256 0.0
528 1 -8.43663832 55.5768116 0.0
529 1 8.25688952 18.24882184 0.0
530 1 7.84194992 -47.4338408 0.0
531 1 -54.596737104 44.015112 0.0
532 1 -35.17392216 -28.46602376 0.0
533 1 34.82539624 25.38496592 0.0
534 1 -7.25519848 52.76234224 0.0
535 1 50.62531576 -26.76611368 0.0
536 1 -41.17718192 3.5681304 0.0
537 1 40.5012564 26.8275084 0.0
538 1 6.8491296 3.90054896 0.0
539 1 -28.5012732 10.77278912 0.0
540 1 47.44691344 27.95654096 0.0
541 1 -33.17042336 -36.13721232 0.0
542 1 -0.25491648 47.86196976 0.0
543 1 -43.35400992 35.82043424 0.0
544 1 -27.07717248 2.18721608 0.0
545 1 17.324166 -3.42059632 0.0
546 1 -16.62069456 37.81541248 0.0
547 1 -50.077712208 -26.21251072 0.0
548 1 11.67620192 -47.664514536 0.0
549 1 -49.925439296 -16.91961448 0.0
550 1 -51.133001072 55.87246336 0.0
551 1 -28.45528552 16.53957416 0.0
552 1 -25.72940664 10.45332648 0.0
553 1 49.19853048 44.78628104 0.0
554 1 -25.77621136 53.38632736 0.0
555 1 -16.86242168 11.835408 0.0
556 1 -51.277220304 -40.12553472 0.0
557 1 -18.0466628 12.24427816 0.0
558 1 -8.95440824 -35.3626584 0.0
559 1 -15.84275576 44.87557184 0.0
560 1 0.85532416 21.51429728 0.0
561 1 -44.28076672 34.54363416 0.0
562 1 32.18472296 -17.4636464 0.0
563 1 54.18644296 51.58417056 0.0
564 1 51.0690852 -43.01237048 0.0
565 1 -17.57989952 54.02665328 0.0
566 1 -51.586318208 39.28141568 0.0
567 1 -54.78375756 0.19573944 0.0
568 1 47.06745672 -32.64938528 0.0
569 1 46.5397656 32.28755328 0.0
570 1 -31.81215272 55.72142768 0.0
571 1 39.18979048 10.20611352 0.0
572 1 35.60158424 -56.994504392 0.0
573 1 -19.693582 -45.68374112 0.0
574 1 -7.73526784 35.72729168 0.0
575 1 -40.95541392 14.92650376 0.0
576 1 -48.656027592 -55.454162224 0.0
577 1 -15.40797376 20.16127904 0.0
578 1 6.78435 34.05784552 0.0
579 1 -49.126549256 -29.9048312 0.0
580 1 -30.74066312 -39.38296208 0.0
581 1 -28.60678808 54.87789224 0.0
582 1 49.39076832 28.3378652 0.0
583 1 -27.35123104 -28.34323432 0.0
584 1 51.0223972 39.00618992 0.0
585 1 -30.58740976 -38.09845848 0.0
586 1 -51.379548728 57.24917576 0.0
587 1 55.0323128 -6.3273912 0.0
588 1 -36.75909648 -2.09990952 0.0
589 1 -11.22916432 -44.20629936 0.0
590 1 -3.86588312 33.95945056 0.0
591 1 -40.227548 16.78118456 0.0
592 1 -26.18368088 1.06810472 0.0
593 1 47.01119768 -14.31909288 0.0
594 1 30.8368404 44.58960784 0.0
595 1 -18.9068892 16.52568448 0.0
596 1 41.85847656 -55.368921608 0.0
597 1 -6.55336112 7.45268872 0.0
598 1 -52.056618104 -41.03163208 0.0
599 1 -39.78506248 50.7679476 0.0
600 1 -5.67971192 -31.80701704 0.0
601 1 -34.60642952 49.77220928 0.0
602 1 -29.67932816 52.4492992 0.0
603 1 49.8505284 36.73867048 0.0
604 1 -5.96836048 23.88989944 0.0
605 1 48.30375496 40.77636544 0.0
606 1 47.94355704 53.00383592 0.0
607 1 -43.77093376 52.579442 0.0
608 1 20.43031864 40.00554656 0.0
609 1 2.87586408 -20.46008224 0.0
610 1 -42.61587264 44.76375408 0.0
611 1 9.5290208 -49.199966136 0.0
612 1 -38.86379152 -37.19551256 0.0
613 1 37.63379616 -4.40139448 0.0
614 1 38.19440232 22.79961792 0.0
615 1 20.95672584 -48.553045536 0.0
616 1 15.09282976 -36.77135208 0.0
617 1 45.79322448 -29.98875288 0.0
618 1 -49.374742664 -5.36865312 0.0
619 1 -24.8858712 40.76656096 0.0
620 1 -18.03989304 44.90416824 0.0
621 1 -18.77814704 42.92016168 0.0
622 1 32.84944336 39.35063064 0.0
623 1 4.09231992 -32.9611444 0.0
624 1 18.79355408 38.89612296 0.0
625 1 6.9279156 41.7408228 0.0
626 1 29.43351584 49.59456144 0.0
627 1 -20.83533704 -21.54896312 0.0
628 1 35.20520312 -29.79091248 0.0
629 1 -44.2870696 -39.696472 0.0
630 1 27.98502064 30.9313836 0.0
631 1 -21.75462376 -39.35576632 0.0
632 1 53.256418 46.938948 0.0
633 1 -25.0603676 -41.93936352 0.0
634 1 -34.62895648 23.99576448 0.0
635 1 20.230494 46.64574736 0.0
636 1 -39.01436032 -27.75531568 0.0
637 1 37.89629944 -33.94777856 0.0
638 1 25.9071712 51.76263544 0.0
639 1 -21.63953784 43.25398088 0.0
640 1 39.26495816 58.11593848 0.0
641 1 -40.14596072 14.09639112 0.0
642 1 17.69521888 -32.70832888 0.0
643 1 49.46208424 43.03489744 0.0
644 1 -41.36008216 -35.35472144 0.0
645 1 -52.259360744 -51.083570152 0.0
646 1 11.09505304 20.41152672 0.0
647 1 6.8759752 -46.75079536 0.0
648 1 12.50549752 -57.2647473752 0.0
649 1 37.68748736 43.577412 0.0
650 1 19.54814888 -2.47924952 0.0
651 1 6.90142016 22.92485848 0.0
652 1 57.87024288 55.15090032 0.0
653 1 -47.499192328 -16.10782688 0.0
654 1 -5.38335984 46.49914704 0.0
655 1 50.1318236 -17.6060448 0.0
656 1 -10.20027752 10.49943088 0.0
657 1 14.350724 52.92633384 0.0
658 1 11.10684176 -28.28020552 0.0
659 1 3.24446584 -58.119200804 0.0
660 1 -3.104752 -13.5704508 0.0
661 1 16.61871032 30.71089952 0.0
662 1 -37.67336424 9.4986736 0.0
663 1 46.38908008 -57.144653 0.0
664 1 -33.50004064 49.85473032 0.0
665 1 -57.6251985776 48.98516632 0.0
666 1 -1.8074092 56.3384096 0.0
667 1 43.50702984 52.9377724 0.0
668 1 -27.45149352 55.10164448 0.0
669 1 53.936312 -50.205649 0.0
670 1 -39.74572784 -43.30347016 0.0
671 1 -21.33606584 56.79688576 0.0
672 1 -28.6133244 -36.84115064 0.0
673 1 -1.8330876 -13.5646148 0.0
674 1 21.2161944 19.36746632 0.0
675 1 21.96308568 11.0633052 0.0
676 1 13.21305416 42.02013376 0.0
677 1 44.45969848 44.75710104 0.0
678 1 -58.3602627554 -19.68097624 0.0
679 1 28.15741608 -52.069795792 0.0
680 1 -39.70277488 5.31344456 0.0
681 1 31.318894 -21.11803288 0.0
682 1 49.2254928 52.8893336 0.0
683 1 44.0477936 -35.71141776 0.0
684 1 58.31541296 -35.74771768 0.0
685 1 -12.04328632 -1.7548852 0.0
686 1 24.4855216 -20.7137148 0.0
687 1 -17.1911052 -57.4723584064 0.0
688 1 -28.94375872 50.22893464 0.0
689 1 -51.578439608 -57.6784474088 0.0
690 1 -35.24967344 -44.74099368 0.0
691 1 30.4382416 -51.162531232 0.0
692 1 -57.2425624048 41.53679624 0.0
693 1 -3.62170488 58.06283088 0.0
694 1 -35.77631408 20.70005856 0.0
695 1 1.25088824 -39.80548848 0.0
696 1 42.74741608 30.72794064 0.0
697 1 -56.013601184 -20.40405664 0.0
698 1 27.20498088 -0.18663528 0.0
699 1 51.38843112 22.47175144 0.0
700 1 -43.13480976 -55.437949816 0.0
701 1 57.22524816 52.91104352 0.0
702 1 -55.965512544 31.29858472 0.0
703 1 35.2832888 8.89359712 0.0
704 1 44.75640072 57.97680824 0.0
705 1 18.76752552 -14.02705944 0.0
706 1 -44.5771188 -43.71525832 0.0
707 1 -31.17427792 -56.242500776 0.0
708 1 -48.411125688 40.3366812 0.0
709 1 48.48828928 43.87808272 0.0
710 1 -12.14950152 -46.54455112 0.0
711 1 -55.640529048 47.19071304 0.0
712 1 -28.73518008 57.0387296 0.0
713 1 25.2827192 25.7466812 0.0
714 1 4.47107632 -30.25055584 0.0
715 1 -3.577468 -16.53910728 0.0
716 1 3.845924 -41.42264408 0.0
717 1 38.17479336 -44.71204712 0.0
718 1 11.48804928 -17.41952624 0.0
719 1 -41.46116168 57.01958752 0.0
720 1 -23.90612352 29.98618504 0.0
721 1 -42.46962248 -49.344815656 0.0
722 1 -34.49402816 -47.693356048 0.0
723 1 -43.81937256 38.67120352 0.0
724 1 -42.9873924 49.81271112 0.0
725 1 -1.23232976 15.05676328 0.0
726 1 47.36941136 -53.077813056 0.0
727 1 37.43000304 50.16952416 0.0
728 1 -41.35833136 -46.91216076 0.0
729 1 -18.22559456 -48.321811544 0.0
730 1 -53.963461072 51.6725276 0.0
731 1 53.36310008 -52.317183832 0.0
732 1 38.33866824 37.74538048 0.0
733 1 13.76233848 -22.96209216 0.0
734 1 -56.319687712 33.451952 0.0
735 1 36.07978608 54.07030656 0.0
736 1 39.82241288 21.45558712 0.0
737 1 4.24207168 -18.32118824 0.0
738 1 52.06365632 -36.24167672 0.0
739 1 -8.65817288 -50.317163288 0.0
740 1 -52.438887776 -17.10496584 0.0
741 1 -48.180043432 -10.16841296 0.0
742 1 21.4286248 29.05580992 0.0
743 1 -32.90827024 20.91925872 0.0
744 1 54.8391412 -35.62667904 0.0
745 1 35.5400728 -26.65312872 0.0
746 1 -42.52237992 -54.341260368 0.0
747 1 -56.30963812 -18.67298232 0.0
748 1 -25.2360312 26.18881656 0.0
749 1 46.06039656 19.21503 0.0
750 1 50.34962312 41.3527288 0.0
751 1 -12.78947728 12.2019088 0.0
752 1 44.2613912 41.54928528 0.0
753 1 11.46762328 -52.092626224 0.0
754 1 -15.85792936 48.60699352 0.0
755 1 -7.82339144 -39.31619824 0.0
756 1 32.36050328 -54.930392896 0.0
757 1 47.6019176 -43.85473872 0.0
758 1 18.42215104 52.01311656 0.0
759 1 -34.90850088 1.6760992 0.0
760 1 -23.53565424 51.61463448 0.0
761 1 -52.199553416 -54.111053512 0.0
762 1 -42.78978544 -12.55300256 0.0
763 1 38.10301056 -19.49247344 0.0
764 1 -57.9050686264 -50.02479136 0.0
765 1 35.27079976 -50.739853096 0.0
766 1 5.74472496 49.98510656 0.0
767 1 -19.08570424 -26.01373656 0.0
768 1 32.585306 19.3189108 0.0
769 1 2.83022656 53.43289864 0.0
770 1 5.02841432 38.27237128 0.0
771 1 -56.12078516 -49.09861816 0.0
772 1 11.70129672 -12.03418216 0.0
773 1 42.83425576 -42.63244688 0.0
774 1 -4.89150176 41.29798712 0.0
775 1 -47.517669104 54.70771448 0.0
776 1 -20.08611136 -8.3618208 0.0
777 1 33.2167612 10.43313392 0.0
778 1 46.71181088 37.92898104 0.0
779 1 15.79490056 -39.58943976 0.0
780 1 -42.49670152 -33.25154376 0.0
781 1 -27.80854 -56.958881448 0.0
782 1 40.03285904 52.86517256 0.0
783 1 -12.92814064 42.42503544 0.0
784 1 51.66972632 4.1178816 0.0
785 1 -38.80601512 -47.511914808 0.0
786 1 26.4732632 -55.042187312 0.0
787 1 -52.452987552 -21.70385056 0.0
788 1 -5.38814536 -49.834175928 0.0
789 1 21.6066228 -36.3973812 0.0
790 1 39.27814752 46.18937216 0.0
791 1 56.7335068 37.68702048 0.0
792 1 -54.471636608 -41.73802152 0.0
793 1 48.3028212 28.8841148 0.0
794 1 29.17556464 -55.236911288 0.0
795 1 -45.81645176 14.289446 0.0
796 1 -9.11980048 40.4236376 0.0
797 1 31.97614432 -39.69262024 0.0
798 1 55.94599696 -37.1852412 0.0
799 1 42.14210616 -34.57806656 0.0
800 1 -44.22602504 -3.34612896 0.0
801 1 43.60098944 22.45190904 0.0
802 1 52.0086812 39.72238384 0.0
803 1 53.7367208 -39.1665632 0.0
804 1 -36.9763124 -35.783434 0.0
805 1 48.83284672 -29.85207376 0.0
806 1 17.54616744 -41.6025096 0.0
807 1 -49.98586524 -42.13440264 0.0
808 1 -45.281524 -50.644702952 0.0
809 1 -13.58422376 -40.06227248 0.0
810 1 -39.64698272 -45.765912 0.0
811 1 -1.17630416 -27.81741072 0.0
812 1 -42.89880192 4.77454832 0.0
813 1 -12.50257952 -47.747794256 0.0
814 1 21.4029464 56.89609776 0.0
815 1 13.691256 -43.52477128 0.0
816 1 38.89098728 -38.49927496 0.0
817 1 -18.9617476 -0.07516768 0.0
818 1 23.12363264 1.65345552 0.0
819 1 47.63016384 -42.57291968 0.0
820 1 -21.73653216 -47.797493632 0.0
821 1 38.43566256 -7.50404552 0.0
822 1 34.25311808 50.067044 0.0
823 1 -31.31562584 44.78277944 0.0
824 1 53.85787616 -6.4902156 0.0
825 1 20.320952 50.25367928 0.0
826 1 -0.71981224 -13.32755648 0.0
827 1 43.1607216 39.29087 0.0
828 1 -53.74471612 -47.7171786 0.0
829 1 -24.333202 31.22715208 0.0
830 1 37.39627096 18.0454956 0.0
831 1 43.47726624 -46.61061464 0.0
832 1 6.72155464 -45.2109084 0.0
833 1 50.5088292 -8.48694464 0.0
834 1 -39.61290048 24.4049848 0.0
835 1 5.35604736 0.01774144 0.0
836 1 -37.83327064 -30.242152 0.0
837 1 21.42477304 25.92222808 0.0
838 1 -25.76745736 -47.998812288 0.0
839 1 24.00300112 43.6439424 0.0
840 1 49.47714112 40.48561592 0.0
841 1 39.75623264 32.92040912 0.0
842 1 -6.52383096 33.73208 0.0
843 1 -40.46985872 55.92335328 0.0
844 1 42.50498864 20.639014 0.0
845 1 49.69272296 33.67325312 0.0
846 1 1.97793712 16.73309592 0.0
847 1 -30.95052568 48.9500336 0.0
848 1 -30.487264 -49.989903752 0.0
849 1 51.43932104 -18.95311032 0.0
850 1 -15.9042672 -39.61570176 0.0
851 1 -51.194255728 -28.52438376 0.0
852 1 -2.06232568 32.9786524 0.0
853 1 29.42896376 28.23538504 0.0
854 1 46.47533616 26.00299832 0.0
855 1 -42.02025048 47.60681984 0.0
856 1 -10.7633348 38.50406048 0.0
857 1 -46.29780504 -9.6124756 0.0
858 1 -58.0619776568 27.14066816 0.0
859 1 -21.38205352 -41.82859624 0.0
860 1 -35.76510896 -27.4017708 0.0
861 1 -26.55636784 -14.7218936 0.0
862 1 -34.7878124 -0.881236 0.0
863 1 -49.098396392 -53.409601328 0.0
864 1 -31.01168696 -52.102489064 0.0
865 1 23.95176104 56.31494888 0.0
866 1 -44.88619336 52.83692632 0.0
867 1 -52.19123128 -38.69139608 0.0
868 1 -48.712461712 -49.996101584 0.0