ITEM: TIMESTEP
0
ITEM: NUMBER OF ATOMS
9891
ITEM: BOX BOUNDS pp pp pp
-5.8359999999999999e+01 5.8359999999999999e+01
-5.8359999999999999e+01 5.8359999999999999e+01
-5.0000000000000000e-01 5.0000000000000000e-01
ITEM: ATOMS id type xs ys zs c_002[1] c_002[2]
1 1 0.0751547 0.197943 0.5 0.918426 0.24689
2 1 0.0281619 0.187971 0.5 0.920866 0.0569139
3 1 0.0731531 0.118628 0.5 0.803112 -0.500688
4 1 0.0686596 0.280375 0.5 0.635792 -0.281664
5 1 0.0279401 0.206362 0.5 0.616436 0.565362
6 1 0.0928508 0.155069 0.5 0.675056 0.441929
7 1 0.996182 0.27711 0.5 0.308866 -0.869686
8 1 0.127227 0.182242 0.5 0.79495 0.382255
9 1 0.0617691 0.100688 0.5 0.959008 0.221921
10 1 0.965924 0.148783 0.5 0.956937 -0.0649763
11 1 0.034178 0.141667 0.5 0.621255 0.240694
12 1 0.029795 0.26989 0.5 0.125103 0.250625
13 1 0.0684907 0.128798 0.5 0.692383 0.0105783
14 1 0.0397243 0.170588 0.5 0.752043 0.304505
15 1 0.0926862 0.117206 0.5 0.806119 -0.545413
16 1 0.0115321 0.414193 0.5 -0.656175 -0.0309289
17 1 0.945896 0.248853 0.5 0.692785 -0.395403
18 1 0.994591 0.0317354 0.5 0.781526 -0.0468557
19 1 0.0835988 0.135116 0.5 0.819708 -0.234535
20 1 0.923224 0.167213 0.5 0.789489 -0.374011
21 1 0.0752191 0.181673 0.5 0.90843 -0.163651
22 1 0.105304 0.164251 0.5 0.551604 0.156638
23 1 0.143401 0.137507 0.5 0.688032 0.159764
24 1 0.064822 0.198228 0.5 0.977176 -0.0667485
25 1 0.107837 0.127557 0.5 0.759315 0.299934
26 1 0.0220216 0.234103 0.5 0.534624 0.247866
27 1 0.995538 0.204483 0.5 0.974374 0.0775852
28 1 0.098183 0.261327 0.5 0.952118 -0.171976
29 1 0.00182313 0.258395 0.5 -0.0977224 0.0976738
30 1 0.00628945 0.0869657 0.5 0.711644 0.122409
31 1 0.0993785 0.208661 0.5 0.841798 0.128409
32 1 0.0341332 0.161381 0.5 0.908502 0.237045
33 1 0.992203 0.259565 0.5 0.461415 -0.493117
34 1 0.0380631 0.226003 0.5 0.698359 0.388588
35 1 0.0192412 0.151261 0.5 0.872797 0.361856
36 1 0.978124 0.270011 0.5 0.885255 0.0187268
37 1 0.971933 0.0858238 0.5 0.579241 -0.058753
38 1 0.975518 0.290039 0.5 0.15496 -0.189
39 1 0.0446107 0.311983 0.5 0.424474 -0.331192
40 1 0.0393467 0.20669 0.5 0.796476 0.228365
41 1 0.125877 0.0635792 0.5 0.838312 0.282211
42 1 0.937276 0.372469 0.5 0.809 0.459573
43 1 0.148329 0.220618 0.5 0.626175 0.231877
44 1 0.95624 0.148786 0.5 0.942869 -0.0939751
45 1 0.04315 0.180322 0.5 0.775465 0.269791
46 1 0.049391 0.208215 0.5 0.84166 0.157944
47 1 0.000338529 0.213572 0.5 0.899067 0.203669
48 1 0.0741041 0.272205 0.5 0.735467 -0.131689
49 1 0.998962 0.0769141 0.5 0.777068 -0.286782
50 1 0.929923 0.174929 0.5 0.762956 -0.167133
51 1 0.907306 0.156882 0.5 0.859957 0.336078
52 1 0.0667678 0.26506 0.5 0.496105 -0.0540164
53 1 0.0913462 0.0998861 0.5 0.870051 -0.0552794
54 1 0.017313 0.169052 0.5 0.846373 0.285245
55 1 0.0699481 0.189563 0.5 0.93465 -0.0845714
56 1 0.152271 0.288542 0.5 0.602529 -0.380401
57 1 0.953946 0.185593 0.5 0.776086 -0.166574
58 1 0.95373 0.0100006 0.5 0.372435 -0.16315
59 1 0.975282 0.221734 0.5 0.684361 0.259779
60 1 0.0482853 0.279761 0.5 -0.211576 0.224518
61 1 0.983055 0.279047 0.5 0.649952 0.228557
62 1 0.0102252 0.213936 0.5 0.811587 0.32398
63 1 0.152495 0.248664 0.5 0.625391 0.129889
64 1 0.98996 0.269608 0.5 0.440634 -0.548863
65 1 0.0249262 0.224184 0.5 0.569294 0.288907
66 1 0.0776859 0.242518 0.5 0.652328 -0.0159933
67 1 0.936105 0.231371 0.5 0.647981 0.622379
68 1 0.0309786 0.313309 0.5 0.211374 -0.153872
69 1 0.148852 0.145433 0.5 0.199712 -0.0718509
70 1 0.061499 0.235983 0.5 0.618427 0.141933
71 1 0.00276081 0.320104 0.5 -0.454211 -0.15306
72 1 0.931088 0.295846 0.5 0.859927 0.338092
73 1 0.104493 0.200732 0.5 0.619024 0.10606
74 1 0.991206 0.196127 0.5 0.927133 -0.118732
75 1 0.0836906 0.233642 0.5 0.871766 0.224042
76 1 0.0299321 0.254178 0.5 0.605368 0.345947
77 1 0.965604 0.130696 0.5 0.767956 0.0880616
78 1 0.985872 0.204161 0.5 0.860849 -0.0342177
79 1 0.97011 0.318949 0.5 0.376437 0.572455
80 1 0.0692477 0.172229 0.5 0.925061 0.246905
81 1 0.00175021 0.295225 0.5 -0.00943013 -0.902324
82 1 0.936841 0.390749 0.5 0.88749 -0.252466
83 1 0.0782877 0.262266 0.5 0.661546 -0.565466
84 1 0.0434495 0.21601 0.5 0.825273 0.435189
85 1 0.957666 0.248999 0.5 0.930802 -0.22551
86 1 0.184057 0.13051 0.5 0.769018 -0.139902
87 1 0.927817 0.194316 0.5 0.528353 0.694526
88 1 0.0449028 0.143994 0.5 0.671465 0.673226
89 1 0.112068 0.209831 0.5 0.54606 -0.161987
90 1 0.94746 0.373219 0.5 0.718542 0.483284
91 1 0.0634255 0.180999 0.5 0.824971 0.129522
92 1 0.0355283 0.245804 0.5 0.780385 0.0892516
93 1 0.110026 0.0719808 0.5 0.761526 0.190777
94 1 0.00212697 0.178803 0.5 0.826125 0.249674
95 1 0.0284042 0.378646 0.5 -0.749225 0.0650275
96 1 0.0384182 0.274277 0.5 -0.199184 0.638305
97 1 0.967455 0.37237 0.5 -0.557415 -0.34565
98 1 0.984316 0.122405 0.5 0.809227 0.478365
99 1 0.117867 0.0895892 0.5 0.611958 -0.0199996
100 1 0.111717 0.226997 0.5 0.797157 0.419016
101 1 0.966147 0.205681 0.5 0.556731 0.293373
102 1 0.970809 0.0968658 0.5 0.580426 -0.301982
103 1 0.11991 0.109587 0.5 0.796473 0.375023
104 1 0.110093 0.245596 0.5 0.45697 0.391593
105 1 0.901936 0.201396 0.5 0.566315 0.349763
106 1 0.972357 0.298761 0.5 0.692103 -0.020624
107 1 0.989094 0.231014 0.5 0.573769 0.611596
108 1 0.116462 0.218312 0.5 0.871927 -0.00283426
109 1 0.0280534 0.0506894 0.5 0.668517 0.24016
110 1 0.00353935 0.284549 0.5 0.241052 -0.820051
111 1 0.0108739 0.114734 0.5 0.847931 0.288159
112 1 0.982048 0.261369 0.5 0.556028 -0.0937447
113 1 0.0146537 0.222554 0.5 0.739513 -0.0595659
114 1 0.0133843 0.283195 0.5 -0.0607678 -0.536097
115 1 0.978899 0.252164 0.5 0.268405 0.169084
116 1 0.0517733 0.270967 0.5 0.634626 -0.126188
117 1 0.97865 0.23139 0.5 0.51879 0.661136
118 1 0.0380817 0.188597 0.5 0.947016 0.0617666
119 1 0.0466431 0.0893061 0.5 0.842456 -0.0442527
120 1 0.109978 0.190855 0.5 0.674733 0.491502
121 1 0.958069 0.213134 0.5 0.546276 0.635879
122 1 0.999576 0.41719 0.5 0.344242 0.175713
123 1 0.061061 0.272694 0.5 0.518763 0.0258939
124 1 0.975823 0.205356 0.5 0.89838 -0.124727
125 1 0.989044 0.176118 0.5 0.162112 0.106386
126 1 0.00716882 0.203768 0.5 0.769663 0.204309
127 1 0.988429 0.0786391 0.5 0.645569 -0.146153
128 1 0.0388905 0.152243 0.5 0.872861 0.357678
129 1 0.0750529 0.162146 0.5 0.475338 0.423005
130 1 0.997748 0.456149 0.5 0.0927313 -0.677814
131 1 0.105746 0.217008 0.5 0.800547 0.0780384
132 1 0.00618619 0.105278 0.5 0.860827 0.319188
133 1 0.0209434 0.0609341 0.5 0.858569 0.233947
134 1 0.971581 0.158639 0.5 0.844245 0.308144
135 1 0.995244 0.223783 0.5 0.740003 0.453676
136 1 0.0125871 0.19593 0.5 0.931974 0.0381031
137 1 0.965875 0.105089 0.5 0.204636 0.214625
138 1 0.136938 0.23931 0.5 0.353358 -0.383481
139 1 0.96679 0.114767 0.5 0.0754532 0.292839
140 1 0.993718 0.313655 0.5 -0.149936 -0.341022
141 1 0.0892523 0.225262 0.5 0.904658 0.379132
142 1 0.0232811 0.178357 0.5 0.9403 0.184796
143 1 0.0201575 0.351605 0.5 -0.656079 0.42178
144 1 0.0359762 0.12536 0.5 0.736856 0.487504
145 1 0.990255 0.0945945 0.5 0.812232 -0.26917
146 1 0.0254717 0.106148 0.5 0.724572 0.0344855
147 1 0.0408181 0.285328 0.5 -0.529735 0.559838
148 1 0.984841 0.288341 0.5 0.131245 -0.58683
149 1 0.0202815 0.396091 0.5 -0.628097 0.193158
150 1 0.977294 0.148925 0.5 0.930824 0.026541
151 1 0.0812746 0.100815 0.5 0.882097 -0.256017
152 1 0.960348 0.315858 0.5 0.231989 0.851004
153 1 0.0307471 0.282733 0.5 -0.56389 0.346195
154 1 0.087375 0.0908993 0.5 0.905708 0.0983444
155 1 0.0465052 0.12553 0.5 0.779772 0.360796
156 1 0.0573565 0.26318 0.5 0.786661 0.278986
157 1 0.0305312 0.0800931 0.5 0.704659 0.034779
158 1 0.0226826 0.277452 0.5 -0.187019 0.0785137
159 1 0.97383 0.328145 0.5 0.319573 0.185287
160 1 0.996954 0.168908 0.5 0.569263 0.384568
161 1 0.0619765 0.254789 0.5 0.947974 -0.0908187
162 1 0.955713 0.112627 0.5 0.485946 0.632114
163 1 0.00772908 0.150813 0.5 0.805542 0.290303
164 1 0.0395824 0.296011 0.5 -0.471914 -0.35715
165 1 0.0230017 0.160081 0.5 0.79661 0.494478
166 1 0.950105 0.195842 0.5 0.750792 -0.0934745
167 1 0.0792093 0.172833 0.5 0.842662 0.182349
168 1 0.056475 0.127371 0.5 0.623841 0.563268
169 1 0.0338326 0.198196 0.5 0.839456 0.0594481
170 1 0.99812 0.131275 0.5 0.918481 0.301161
171 1 0.0192904 0.132418 0.5 0.808141 0.396522
172 1 0.95768 0.306147 0.5 0.621103 0.459992
173 1 0.0952908 0.181526 0.5 0.966784 -0.0511858
174 1 0.0134139 0.158691 0.5 0.707483 0.168981
175 1 0.057949 0.282408 0.5 0.569716 -0.260613
176 1 0.932542 0.276613 0.5 0.334425 0.19653
177 1 0.99431 0.286403 0.5 -0.0746114 -0.821947
178 1 0.0887727 0.244402 0.5 0.737674 0.174345
179 1 0.127981 0.146589 0.5 0.78248 0.569242
180 1 0.0680761 0.244094 0.5 0.643447 -0.448422
181 1 0.024529 0.196569 0.5 0.573054 0.261593
182 1 0.967483 0.356759 0.5 0.626802 0.437112
183 1 0.0125244 0.0427341 0.5 0.782731 0.269146
184 1 0.206945 0.100124 0.5 0.348295 0.250461
185 1 0.990016 0.213774 0.5 0.952477 0.160136
186 1 0.975943 0.367963 0.5 -0.618887 -0.445495
187 1 0.0824998 0.0821608 0.5 0.917954 0.104839
188 1 0.103192 0.115933 0.5 0.543823 0.118408
189 1 0.0782078 0.126843 0.5 0.851429 -0.358406
190 1 0.0624893 0.339353 0.5 0.43071 -0.383105
191 1 0.975576 0.377306 0.5 -0.795646 -0.150437
192 1 0.00508133 0.240068 0.5 0.513173 0.37853
193 1 0.0258072 0.244906 0.5 0.375631 0.612711
194 1 0.0434137 0.161861 0.5 0.882288 -0.0986324
195 1 0.00845438 0.347299 0.5 -0.482096 -0.122027
196 1 0.00836403 0.274586 0.5 0.0455651 -0.534157
197 1 0.90592 0.192323 0.5 0.7481 0.375575
198 1 0.162016 0.248916 0.5 0 0
199 1 0.962276 0.221812 0.5 0.655212 0.300748
200 1 0.0865059 0.162954 0.5 0.621547 0.738034
201 1 0.0120295 0.178114 0.5 0.902313 0.155222
202 1 0.951618 0.24075 0.5 0.674591 -0.455694
203 1 0.0818025 0.253233 0.5 0.708254 -0.111461
204 1 0.0998368 0.173299 0.5 0.776839 -0.148372
205 1 0.962217 0.239789 0.5 0.857647 -0.393115
206 1 0.0957917 0.16497 0.5 0.691142 0.426934
207 1 0.981322 0.241028 0.5 0.386515 0.0886823
208 1 0.0464714 0.10938 0.5 0.698074 0.142831
209 1 0.930199 0.203519 0.5 0.573151 0.345143
210 1 0.0518335 0.255018 0.5 0.914465 0.129168
211 1 0.115248 0.0634514 0.5 0.970653 0.176945
212 1 0.0208959 0.289231 0.5 -0.686098 -0.428217
213 1 0.892861 0.357929 0.5 0.95662 -0.0125562
214 1 0.941717 0.222405 0.5 0.832985 0.142351
215 1 0.0783507 0.280776 0.5 0.867683 -0.000941747
216 1 0.920469 0.202235 0.5 0.640606 0.0741909
217 1 0.887752 0.294395 0.5 0.745102 -0.116288
218 1 0.984817 0.222347 0.5 0.895593 0.394774
219 1 0.00335282 0.372029 0.5 -0.493817 0.0812285
220 1 0.00170438 0.16061 0.5 0.411373 0.0318301
221 1 0.96856 0.229523 0.5 0.624547 0.275541
222 1 0.142848 0.246896 0.5 0.566274 0.218871
223 1 0.983925 0.383266 0.5 -0.754812 -0.290148
224 1 0.983708 0.317463 0.5 -0.213641 -0.589364
225 1 0.0501875 0.171129 0.5 0.794609 0.155868
226 1 0.0588316 0.226841 0.5 0.535562 0.560434
227 1 0.98547 0.18822 0.5 0.74892 -0.235285
228 1 0.92307 0.185521 0.5 0.793162 0.472582
229 1 0.000946111 0.195324 0.5 0.921917 -0.0567578
230 1 0.991448 0.240192 0.5 0.372157 -0.0906215
231 1 0.0420875 0.0978029 0.5 0.734176 0.0856022
232 1 0.000693317 0.0943813 0.5 0.849487 0.20259
233 1 0.0152582 0.241384 0.5 0.272401 0.819243
234 1 0.962342 0.257678 0.5 0.834823 -0.000295132
235 1 0.0169884 0.187255 0.5 0.883535 -0.0038407
236 1 0.885202 0.207737 0.5 0.22994 0.30915
237 1 0.113081 0.119191 0.5 0.589689 0.331379
238 1 0.990407 0.344502 0.5 -0.543495 -0.469397
239 1 0.0721744 0.253936 0.5 0.850571 -0.276405
240 1 0.000374481 0.113489 0.5 0.821792 0.438802
241 1 0.936147 0.250212 0.5 0.660276 -0.303829
242 1 0.967744 0.248242 0.5 0.654034 0.0288351
243 1 0.0107526 0.262404 0.5 0.00902272 -0.0395308
244 1 0.988546 0.250385 0.5 0.466601 -0.462246
245 1 0.0288636 0.133001 0.5 0.741918 0.390428
246 1 0.850696 0.429891 0.5 0.494439 -0.515862
247 1 0.912568 0.148921 0.5 0.970106 -0.0648886
248 1 0.0933354 0.269989 0.5 0.763525 -0.353576
249 1 0.954632 0.230522 0.5 0.317169 -0.215585
250 1 0.925538 0.249798 0.5 0.756022 0.15681
251 1 0.913011 0.184495 0.5 0.659024 0.563001
252 1 0.00459564 0.224281 0.5 0.734253 -0.0286462
253 1 0.0174414 0.20423 0.5 0.619346 0.616324
254 1 0.0535194 0.290885 0.5 0.650838 0.069904
255 1 0.0596792 0.171559 0.5 0.874073 0.433028
256 1 0.0219203 0.114901 0.5 0.81333 0.0648324
257 1 0.0174042 0.252025 0.5 0.380705 0.630675
258 1 0.136223 0.216928 0.5 0.738842 0.414215
259 1 0.938981 0.24125 0.5 0.541843 -0.0283525
260 1 0.979932 0.196313 0.5 0.901825 -0.112609
261 1 0.0330823 0.214675 0.5 0.75376 0.525322
262 1 0.00643042 0.187172 0.5 0.951828 0.0861042
263 1 0.99839 0.232731 0.5 0.521444 0.351198
264 1 0.969106 0.214691 0.5 0.536716 0.312606
265 1 0.0890151 0.126144 0.5 0.847951 -0.294837
266 1 0.985412 0.373933 0.5 -0.774048 -0.105559
267 1 0.0411053 0.235624 0.5 0.725249 0.187367
268 1 0.0078403 0.250633 0.5 0.240843 0.86895
269 1 0.992129 0.296984 0.5 0.503517 -0.593805
270 1 0.0565518 0.246329 0.5 0.708137 -0.0102413
271 1 0.0172108 0.269637 0.5 0.378681 -0.411557
272 1 0.96173 0.276022 0.5 0.648788 0.626368
273 1 0.0612718 0.153851 0.5 0.770646 0.0810378
274 1 0.0293377 0.15204 0.5 0.892393 0.206599
275 1 0.0740281 0.0600523 0.5 0.442884 0.191073
276 1 0.965947 0.415433 0.5 0.342645 0.201049
277 1 0.0459782 0.333465 0.5 -0.119506 0.0938655
278 1 0.052197 0.234101 0.5 0.572775 0.402319
279 1 0.0432082 0.197762 0.5 0.921331 -0.0326192
280 1 0.0769689 0.0922583 0.5 0.912493 0.0115218
281 1 0.0539539 0.197957 0.5 0.925734 0.13846
282 1 0.993443 0.424609 0.5 0.291136 0.502441
283 1 0.972751 0.347635 0.5 0.0568008 0.584643
284 1 0.066607 0.092473 0.5 0.850547 0.296033
285 1 0.00821286 0.131803 0.5 0.845373 0.383439
286 1 0.035357 0.261912 0.5 0.644607 0.489588
287 1 0.926699 0.230847 0.5 0.719031 0.32223
288 1 0.041556 0.253938 0.5 0.861945 0.158202
289 1 0.128242 0.234647 0.5 0.169126 -0.244467
290 1 0.00812131 0.167613 0.5 0.690203 -0.0128666
291 1 0.0543366 0.31035 0.5 0.79812 -0.188558
292 1 0.984481 0.104215 0.5 0.863403 -0.21891
293 1 0.0589165 0.0724461 0.5 0.616672 0.286338
294 1 0.0593302 0.189851 0.5 0.927533 -0.0346324
295 1 0.102938 0.154203 0.5 0.588736 0.398363
296 1 0.112043 0.341211 0.5 -0.685484 -0.169371
297 1 0.915934 0.212828 0.5 0.928132 -0.139116
298 1 0.054578 0.161276 0.5 0.733378 0.100298
299 1 0.0832594 0.118449 0.5 0.824137 -0.444886
300 1 0.014422 0.142079 0.5 0.88113 0.237942
301 1 0.0714533 0.235317 0.5 0.566476 -0.203498
302 1 0.0797504 0.144342 0.5 0.573159 0.0801847
303 1 0.90524 0.212467 0.5 0.545299 0.558022
304 1 0.995416 0.0859511 0.5 0.762615 -0.244299
305 1 0.0689041 0.225754 0.5 0.641013 0.245653
306 1 0.916228 0.193635 0.5 0.73508 0.455519
307 1 0.113148 0.135673 0.5 0.879027 0.100832
308 1 0.0169628 0.309694 0.5 -0.274624 -0.125551
309 1 0.0535153 0.180103 0.5 0.832222 0.18611
310 1 0.100392 0.189848 0.5 0.839207 0.385902
311 1 0.00395302 0.122798 0.5 0.798961 0.465267
312 1 0.0656171 0.216448 0.5 0.716052 -0.220748
313 1 0.0872572 0.108563 0.5 0.82191 -0.500493
314 1 0.0552361 0.217466 0.5 0.714734 0.199568
315 1 0.94699 0.491545 0.5 0.27942 -0.10267
316 1 0.183888 0.543947 0.5 -0.738665 -0.296504
317 1 0.991062 0.573447 0.5 0.836992 0.183088
318 1 0.142608 0.47054 0.5 -0.841236 -0.273745
319 1 0.232106 0.421221 0.5 0.391573 -0.702965
320 1 0.047439 0.343315 0.5 -0.118295 0.17718
321 1 0.183422 0.370964 0.5 -0.293382 0.432498
322 1 0.114866 0.537393 0.5 -0.468348 0.377206
323 1 0.126945 0.396191 0.5 -0.659384 0.447143
324 1 0.946241 0.434265 0.5 0.884514 0.387568
325 1 0.0959722 0.508238 0.5 -0.970506 -0.161298
326 1 0.990631 0.448734 0.5 0.0148601 -0.456676
327 1 0.0609299 0.321436 0.5 0.798562 -0.387106
328 1 0.109095 0.493079 0.5 -0.378402 0.0221033
329 1 0.924749 0.599882 0.5 0.841705 0.0658476
330 1 0.0687512 0.503009 0.5 -0.618394 0.044459
331 1 0.0687326 0.452919 0.5 -0.487772 0.00246547
332 1 0.0791175 0.528941 0.5 -0.899943 0.0828342
333 1 0.0370297 0.330624 0.5 -0.724767 0.0522002
334 1 0.0365197 0.43874 0.5 -0.123281 -0.410591
335 1 0.145425 0.25675 0.5 0.245832 0.0508709
336 1 0.272617 0.369294 0.5 0.853928 0.0223612
337 1 0.0560296 0.369638 0.5 -0.62691 0.138129
338 1 0.119673 0.283029 0.5 0.569354 -0.032743
339 1 0.0310923 0.46827 0.5 0.487507 -0.0387664
340 1 0.0645437 0.291344 0.5 0.796823 -0.228378
341 1 0.102118 0.344595 0.5 0.190249 -0.480997
342 1 0.260276 0.399457 0.5 0.206956 -0.840918
343 1 0.0376322 0.477322 0.5 0.823811 0.0759825
344 1 0.964593 0.563449 0.5 0.826915 0.276962
345 1 0.133857 0.475661 0.5 -0.893876 0.120974
346 1 0.0464648 0.367111 0.5 -0.715947 0.391558
347 1 0.208269 0.337452 0.5 -0.203498 0.681433
348 1 0.963671 0.545038 0.5 0.803591 -0.206969
349 1 0.861217 0.428513 0.5 0.368512 0.0243278
350 1 0.0290879 0.3672 0.5 -0.863421 0.0622307
351 1 0.0429736 0.498586 0.5 -0.756451 0.132975
352 1 0.931577 0.542851 0.5 0.863242 -0.312635
353 1 0.0277292 0.345064 0.5 -0.641341 0.299149
354 1 0.0095628 0.337165 0.5 -0.828777 -0.429487
355 1 0.048431 0.560897 0.5 0.0655635 0.685027
356 1 0.102251 0.298934 0.5 0.488531 0.28381
357 1 0.0980097 0.394471 0.5 -0.508112 0.74173
358 1 0.0816046 0.30014 0.5 0.399768 -0.551317
359 1 0.0118532 0.382608 0.5 -0.214623 -0.093137
360 1 0.114645 0.303939 0.5 -0.465409 -0.307358
361 1 0.0725206 0.461812 0.5 -0.520572 0.0495751
362 1 0.236973 0.372349 0.5 0.650458 0.649015
363 1 0.870728 0.474037 0.5 0.308605 -0.187532
364 1 0.0555824 0.330652 0.5 0.680743 -0.346209
365 1 0.986465 0.30585 0.5 0.409549 -0.390721
366 1 0.213983 0.590446 0.5 -0.875359 -0.144222
367 1 0.994994 0.466909 0.5 -0.36672 -0.586589
368 1 0.0490586 0.515841 0.5 -0.256793 -0.659807
369 1 0.029005 0.564034 0.5 0.221891 0.394755
370 1 0.173499 0.370904 0.5 -0.0715144 0.357568
371 1 0.134872 0.312841 0.5 0.351917 0.415518
372 1 0.0886339 0.280808 0.5 0.639097 -0.434784
373 1 0.0589377 0.457811 0.5 -0.392952 -0.228957
374 1 0.0268332 0.442508 0.5 0.0526884 -0.206578
375 1 0.192408 0.365825 0.5 -0.420308 0.649362
376 1 0.142109 0.376347 0.5 -0.34768 -0.0352293
377 1 0.969023 0.521023 0.5 0.5476 0.074855
378 1 0.0579354 0.521086 0.5 -0.024523 -0.297815
379 1 0.985877 0.436248 0.5 0.562721 0.6942
380 1 0.109284 0.408468 0.5 -0.744661 0.573425
381 1 0.0819587 0.429131 0.5 0.542552 0.352427
382 1 0.0523608 0.43809 0.5 -0.661546 0.0113285
383 1 0.0601908 0.498966 0.5 -0.834576 0.0971202
384 1 0.0780801 0.508729 0.5 -0.92238 0.154324
385 1 0.123648 0.356296 0.5 -0.520318 0.750539
386 1 0.0143868 0.498289 0.5 -0.399953 0.380621
387 1 0.107011 0.442952 0.5 -0.640365 -0.223251
388 1 0.23135 0.342067 0.5 0.494657 0.569598
389 1 0.178939 0.314762 0.5 0.721639 0.582534
390 1 0.0422505 0.487216 0.5 -0.0100637 0.551793
391 1 0.986805 0.54595 0.5 0.750141 0.540393
392 1 0.0640602 0.355345 0.5 -0.272594 0.271793
393 1 0.944045 0.526976 0.5 0.643282 0.462939
394 1 0.0383194 0.361802 0.5 -0.861466 0.14249
395 1 0.190853 0.298117 0.5 0.511874 -0.208888
396 1 0.985389 0.492723 0.5 -0.431625 0.0400958
397 1 0.136006 0.547289 0.5 -0.524572 0.587043
398 1 0.956517 0.434093 0.5 0.652002 0.492837
399 1 0.095276 0.287893 0.5 0.637823 -0.568149
400 1 0.019839 0.471628 0.5 -0.233799 -0.0285738
401 1 0.0654359 0.31123 0.5 0.851374 -0.220794
402 1 0.978173 0.519282 0.5 -0.434918 -0.0068452
403 1 0.0804468 0.538653 0.5 -0.800231 0.0979967
404 1 0.0874505 0.502749 0.5 -0.944865 0.0701297
405 1 0.165444 0.396969 0.5 -0.877495 -0.182279
406 1 0.097922 0.326579 0.5 0.689913 0.0782627
407 1 0.0997288 0.560267 0.5 -0.906018 0.0193603
408 1 0.0846133 0.337312 0.5 0.477342 -0.794529
409 1 0.184247 0.393497 0.5 -0.568905 0.586571
410 1 0.927558 0.514098 0.5 0.419275 -0.231716
411 1 0.029166 0.401742 0.5 -0.88232 0.241019
412 1 0.183401 0.381739 0.5 -0.43518 0.293473
413 1 0.0216843 0.385647 0.5 -0.462572 0.22646
414 1 0.051081 0.476778 0.5 0.52438 -0.00505248
415 1 0.125356 0.272733 0.5 0.703495 0.383435
416 1 0.857388 0.404679 0.5 -0.452525 -0.551562
417 1 0.080355 0.318829 0.5 0.432441 -0.410657
418 1 0.0650736 0.375887 0.5 -0.0309247 -0.502901
419 1 0.996528 0.528028 0.5 -0.771471 -0.0722994
420 1 0.0330273 0.422698 0.5 -0.276833 0.0966453
421 1 0.0877081 0.324867 0.5 0.160518 -0.200206
422 1 0.0492731 0.460754 0.5 0.20204 -0.613191
423 1 0.136767 0.422714 0.5 -0.729259 0.046375
424 1 0.196411 0.581248 0.5 -0.715487 -0.0632901
425 1 0.963673 0.529074 0.5 0.827621 0.295607
426 1 0.0238044 0.492405 0.5 -0.29315 0.556847
427 1 0.152036 0.359257 0.5 -0.35515 -0.115123
428 1 0.0465257 0.550033 0.5 -0.26717 0.920522
429 1 0.106542 0.388931 0.5 -0.481488 0.769215
430 1 0.959751 0.519403 0.5 0.669305 0.711576
431 1 0.19536 0.528916 0.5 -0.891804 -0.295168
432 1 0.0980784 0.457537 0.5 -0.959502 -0.199046
433 1 0.102386 0.252143 0.5 0.480589 0.285398
434 1 0.0334773 0.495502 0.5 -0.564976 0.644229
435 1 0.0773051 0.448087 0.5 -0.389554 -0.0588886
436 1 0.0636036 0.40013 0.5 -0.626663 0.64845
437 1 0.0602513 0.46754 0.5 -0.667611 0.338337
438 1 0.167968 0.334571 0.5 0.685035 -0.567855
439 1 0.0940406 0.335735 0.5 0.66092 -0.621892
440 1 0.973081 0.408986 0.5 -0.334383 -0.0900904
441 1 0.133157 0.380433 0.5 -0.7702 -0.110547
442 1 0.980351 0.591104 0.5 0.964027 -0.12721
443 1 0.126757 0.406428 0.5 -0.89814 0.147411
444 1 0.0541444 0.53319 0.5 -0.357551 -0.565166
445 1 0.0420603 0.452947 0.5 0.331727 -0.218231
446 1 0.141435 0.58623 0.5 -0.485703 0.243187
447 1 0.0164369 0.508662 0.5 -0.566177 0.161905
448 1 0.995327 0.508833 0.5 -0.677246 0.237265
449 1 0.993461 0.499573 0.5 -0.334866 0.149652
450 1 0.00636275 0.544043 0.5 -0.525941 -0.0538781
451 1 0.0146299 0.43379 0.5 -0.616137 -0.425381
452 1 0.920768 0.474417 0.5 0.0321973 -0.427015
453 1 0.979569 0.454087 0.5 -0.517069 -0.449856
454 1 0.0118264 0.367574 0.5 -0.91481 -0.281659
455 1 0.980017 0.416766 0.5 0.420288 -0.120215
456 1 0.174751 0.401838 0.5 -0.63769 0.267823
457 1 0.91285 0.564919 0.5 0.725157 -0.565606
458 1 0.0613112 0.388425 0.5 -0.13192 0.0547829
459 1 0.0498069 0.426721 0.5 0.0431573 -0.252764
460 1 0.146318 0.408708 0.5 -0.851054 -0.0651912
461 1 0.0625211 0.539951 0.5 -0.767423 -0.0274746
462 1 0.0138616 0.556132 0.5 0.7954 -0.0110698
463 1 0.0715865 0.34704 0.5 0.0655538 -0.13459
464 1 0.0605326 0.301316 0.5 0.881014 -0.115599
465 1 0.0476109 0.302337 0.5 0.250863 -0.706009
466 1 0.052469 0.50585 0.5 -0.421554 -0.366319
467 1 0.0143627 0.528577 0.5 -0.575002 0.281609
468 1 0.00242604 0.447714 0.5 0.224612 -0.499168
469 1 0.99999 0.267773 0.5 -0.100756 -0.782033
470 1 0.0708951 0.319095 0.5 0.628585 -0.581022
471 1 0.0328844 0.450128 0.5 0.551818 0.0245137
472 1 0.0876045 0.492757 0.5 -0.933312 0.0608346
473 1 0.100535 0.404008 0.5 -0.645597 0.552451
474 1 0.203425 0.543925 0.5 -0.869832 -0.30092
475 1 0.110104 0.575029 0.5 -0.901843 0.264107
476 1 0.9042 0.469784 0.5 0.10724 -0.919536
477 1 0.144539 0.386918 0.5 -0.256733 0.383022
478 1 0.0255626 0.511754 0.5 -0.742324 0.261728
479 1 0.00567741 0.502206 0.5 -0.404867 0.0542515
480 1 0.121754 0.347016 0.5 -0.478578 0.396355
481 1 0.0784566 0.437975 0.5 -0.168619 -0.288806
482 1 0.950463 0.501461 0.5 0.775503 0.519385
483 1 0.125033 0.375466 0.5 -0.854283 -0.115661
484 1 0.00197147 0.574584 0.5 0.751607 -0.0419259
485 1 0.0446346 0.443719 0.5 -0.47139 -0.113381
486 1 0.0465826 0.401951 0.5 -0.694316 -0.161209
487 1 0.0892338 0.462651 0.5 -0.915268 -0.343385
488 1 0.998533 0.247544 0.5 0.20455 0.103525
489 1 0.087102 0.5133 0.5 -0.914232 0.209998
490 1 0.0704907 0.493433 0.5 -0.85182 -0.136208
491 1 0.0539382 0.350338 0.5 -0.107236 0.182018
492 1 0.0196692 0.373864 0.5 -0.601112 0.229204
493 1 0.0557975 0.379357 0.5 -0.237578 0.288934
494 1 0.915567 0.498492 0.5 0.902606 -0.271102
495 1 0.0782554 0.329296 0.5 0.261451 -0.70045
496 1 0.0189552 0.299383 0.5 -0.574404 -0.581251
497 1 0.152477 0.324737 0.5 0.139632 0.534417
498 1 0.920015 0.507226 0.5 0.500476 -0.477141
499 1 0.082701 0.408121 0.5 -0.34098 0.249277
500 1 0.986308 0.511448 0.5 -0.305397 0.332675
501 1 0.110502 0.432042 0.5 -0.654371 -0.0577677
502 1 0.0301306 0.293817 0.5 -0.527007 0.0727288
503 1 0.981384 0.480687 0.5 0.48674 -0.306698
504 1 0.216622 0.33136 0.5 0.342293 0.738758
505 1 0.917656 0.516509 0.5 0.526812 -0.237227
506 1 0.0162964 0.580954 0.5 0.333807 0.180597
507 1 0.143811 0.331619 0.5 -0.329535 0.297471
508 1 0.136385 0.528371 0.5 -0.155694 -0.501288
509 1 0.208344 0.347259 0.5 -0.239359 0.0597188
510 1 0.0930487 0.252924 0.5 0.955562 -0.0176552
511 1 0.931928 0.505001 0.5 0.0248779 -0.494326
512 1 0.0263056 0.531891 0.5 -0.442872 0.106969
513 1 0.0886773 0.390953 0.5 -0.524785 0.707983
514 1 0.949122 0.535975 0.5 0.645206 0.488215
515 1 0.997707 0.564839 0.5 0.78784 -0.0752733
516 1 0.906642 0.555739 0.5 0.75681 -0.570793
517 1 0.0524283 0.450742 0.5 -0.247739 -0.656579
518 1 0.0193219 0.48315 0.5 -0.429431 0.33236
519 1 0.0970648 0.306831 0.5 0.652431 -0.018217
520 1 0.00500253 0.513382 0.5 -0.896313 0.0413096
521 1 0.124062 0.253296 0.5 0.264801 0.280712
522 1 0.932805 0.524191 0.5 0.495267 0.488575
523 1 0.0551168 0.418115 0.5 -0.0112228 0.279074
524 1 0.0678312 0.330973 0.5 0.571378 -0.494609
525 1 0.0750131 0.215915 0.5 0.913983 -0.00159957
526 1 0.116347 0.293922 0.5 -0.169481 -0.744124
527 1 0.22348 0.523833 0.5 -0.914918 -0.171702
528 1 0.143222 0.491131 0.5 -0.514426 0.406931
529 1 0.135568 0.349304 0.5 -0.278258 0.169539
530 1 0.0479596 0.386221 0.5 0.224984 0.530469
531 1 0.976263 0.528771 0.5 0.160362 -0.477423
532 1 0.0833367 0.289269 0.5 0.270897 -0.529408
533 1 0.0606797 0.446219 0.5 -0.693171 -0.481618
534 1 0.118641 0.401004 0.5 -0.531409 0.409307
535 1 0.072691 0.428844 0.5 0.231127 -0.292468
536 1 0.0604301 0.561789 0.5 -0.143673 0.0379949
537 1 0.0483884 0.224964 0.5 0.697272 0.42111
538 1 0.104393 0.379156 0.5 -0.5897 0.284592
539 1 0.0981867 0.447065 0.5 -0.953357 -0.176483
540 1 0.0145289 0.518482 0.5 -0.834924 -0.0166904
541 1 0.269204 0.611302 0.5 -0.735829 -0.300375
542 1 0.138889 0.567003 0.5 -0.250973 0.90897
543 1 0.0057096 0.523224 0.5 -0.960552 0.0529259
544 1 0.111453 0.351569 0.5 -0.469689 0.0987975
545 1 0.0370836 0.306012 0.5 0.0503779 -0.129392
546 1 0.0918 0.430198 0.5 -0.322149 -0.318481
547 1 0.922095 0.562932 0.5 0.648672 -0.699568
548 1 0.0272455 0.459165 0.5 0.637895 0.0937247
549 1 0.0744832 0.337943 0.5 0.611831 -0.70195
550 1 0.0737566 0.40318 0.5 -0.442688 0.593393
551 1 0.0997036 0.242782 0.5 0.543354 0.212945
552 1 0.0385729 0.395563 0.5 -0.683025 0.221302
553 1 0.0864364 0.308366 0.5 0.825997 -0.439326
554 1 0.149294 0.581145 0.5 -0.807399 0.4758
555 1 0.12002 0.324411 0.5 -0.131605 -0.437773
556 1 0.0484485 0.321632 0.5 0.649098 -0.177944
557 1 0.154957 0.403043 0.5 -0.942136 0.191323
558 1 0.126453 0.553715 0.5 -0.574478 0.330284
559 1 0.0718501 0.471737 0.5 -0.606222 -0.36511
560 1 0.037065 0.373478 0.5 -0.763233 0.093651
561 1 0.085338 0.368348 0.5 -0.604525 0.565336
562 1 0.124231 0.533252 0.5 -0.662607 -0.0902254
563 1 0.0958329 0.373735 0.5 -0.860308 0.058994
564 1 0.125897 0.292307 0.5 0.226999 -0.695653
565 1 0.949428 0.517866 0.5 0.859938 0.340456
566 1 0.928736 0.428317 0.5 0.329453 -0.522403
567 1 0.0606688 0.487718 0.5 -0.739754 -0.0582387
568 1 0.970938 0.445644 0.5 0.315519 -0.202024
569 1 0.145752 0.315324 0.5 0.654229 0.528434
570 1 0.0119717 0.356571 0.5 -0.603914 0.178282
571 1 0.0735537 0.356786 0.5 0.294222 0.807219
572 1 0.0917629 0.297381 0.5 0.489185 -0.402611
573 1 0.136924 0.400378 0.5 -0.592724 0.00475849
574 1 0.125579 0.481599 0.5 -0.911803 0.0921454
575 1 0.0806702 0.467121 0.5 -0.920759 -0.35226
576 1 0.0881436 0.482997 0.5 -0.970087 -0.0892494
577 1 0.12165 0.227865 0.5 0.592446 -0.272475
578 1 0.137803 0.412778 0.5 -0.910152 -0.22749
579 1 0.144617 0.366763 0.5 -0.295421 -0.00295932
580 1 0.0461026 0.356199 0.5 -0.85961 0.255104
581 1 0.0951082 0.383461 0.5 -0.538311 0.257007
582 1 0.0962016 0.497493 0.5 -0.887543 -0.207334
583 1 0.0703501 0.301455 0.5 0.915956 -0.284245
584 1 0.00766157 0.462139 0.5 0.198045 -0.245364
585 1 0.0212992 0.407495 0.5 -0.802846 0.478901
586 1 0.185443 0.555288 0.5 -0.69323 -0.368778
587 1 0.0126375 0.443646 0.5 -0.298757 -0.700382
588 1 0.955624 0.510237 0.5 0.776487 0.527637
589 1 0.972778 0.499535 0.5 0.502147 -0.161837
590 1 0.114712 0.381405 0.5 -0.599344 0.514449
591 1 0.0548834 0.360039 0.5 -0.804429 0.40529
592 1 0.9601 0.554692 0.5 0.512237 0.0091434
593 1 0.240652 0.381196 0.5 0.701284 0.591454
594 1 0.0171683 0.461885 0.5 0.268032 -0.121058
595 1 0.0612894 0.432955 0.5 -0.527517 -0.489058
596 1 0.0593506 0.208824 0.5 0.754278 -0.301623
597 1 0.970052 0.573051 0.5 0.891106 0.159212
598 1 0.138994 0.28988 0.5 0.33138 -0.540272
599 1 0.0369296 0.351055 0.5 -0.868478 0.242149
600 1 0.0267632 0.335295 0.5 -0.776408 0.228007
601 1 0.00179112 0.482677 0.5 -0.654971 -0.59882
602 1 0.982858 0.536162 0.5 0.688716 -0.0403319
603 1 0.105475 0.524527 0.5 -0.826635 0.23113
604 1 0.0120315 0.453686 0.5 0.00325898 -0.457686
605 1 0.224659 0.481048 0.5 -0.625138 -0.483274
606 1 0.0106776 0.325142 0.5 -0.62561 -0.00417361
607 1 0.118811 0.436684 0.5 -0.65078 0.0739313
608 1 0.0285652 0.357198 0.5 -0.878816 0.336126
609 1 0.0544759 0.396059 0.5 -0.0405482 0.402805
610 1 0.0866851 0.378857 0.5 -0.512155 0.592886
611 1 0.010779 0.478775 0.5 -0.270425 -0.223595
612 1 0.938384 0.41034 0.5 0.347609 -0.28778
613 1 0.0657865 0.366237 0.5 -0.228027 0.0707299
614 1 0.116321 0.362263 0.5 -0.357791 0.360344
615 1 0.115343 0.527943 0.5 -0.748645 0.200991
616 1 0.140325 0.576576 0.5 -0.362961 0.708399
617 1 0.0792311 0.419865 0.5 0.446507 -0.153197
618 1 0.0604344 0.477101 0.5 0 0
619 1 0.105198 0.513908 0.5 -0.937204 -0.112018
620 1 0.242287 0.345548 0.5 0.557547 0.428124
621 1 0.0808506 0.552577 0.5 -0.394505 0.0788981
622 1 0.179834 0.646722 0.5 -0.380768 0.0133198
623 1 0.134837 0.370126 0.5 -0.715053 -0.379853
624 1 0.0987982 0.437045 0.5 -0.647116 -0.649185
625 1 0.108639 0.398811 0.5 -0.466742 0.714588
626 1 0.0808649 0.396697 0.5 -0.52867 0.792353
627 1 0.069428 0.440879 0.5 -0.424523 -0.685179
628 1 0.142493 0.510315 0.5 0.0755771 -0.733884
629 1 0.0708989 0.534744 0.5 -0.883102 0.289365
630 1 0.0951123 0.353863 0.5 -0.207442 0.0672865
631 1 0.185659 0.413891 0.5 -0.701195 0.30333