ITEM: TIMESTEP
0
ITEM: NUMBER OF ATOMS
9891
ITEM: BOX BOUNDS pp pp pp
-5.8359999999999999e+01 5.8359999999999999e+01
-5.8359999999999999e+01 5.8359999999999999e+01
-5.0000000000000000e-01 5.0000000000000000e-01
ITEM: ATOMS id type xs ys zs c_002[1] c_002[2]
1 1 0.0195859 0.0244146 0.5 -0.497607 -0.64331
2 1 0.871387 0.0979098 0.5 0.0487003 0.419977
3 1 0.905791 0.312552 0.5 -0.686475 -0.306656
4 1 0.850392 0.171514 0.5 -0.581263 -0.612319
5 1 0.967593 0.219541 0.5 -0.635249 0.614702
6 1 0.12384 0.154222 0.5 -0.894514 0.0787836
7 1 0.974985 0.389253 0.5 0 0
8 1 0.0776632 0.206694 0.5 -0.561519 -0.0106345
9 1 0.913827 0.175463 0.5 -0.832748 0.261839
10 1 0.797793 0.0652738 0.5 -0.500154 -0.40828
11 1 0.893224 0.964405 0.5 -0.848237 -0.142888
12 1 0.884513 0.0808618 0.5 0.000663885 0.251615
13 1 0.097977 0.313677 0.5 -0.417003 -0.469594
14 1 0.0718704 0.0888353 0.5 -0.744948 -0.303297
15 1 0.106137 0.0487951 0.5 -0.887918 0.113716
16 1 0.125143 0.462119 0.5 -0.489261 -0.61589
17 1 0.791195 0.0507486 0.5 -0.668108 -0.296373
18 1 0.976201 0.182319 0.5 -0.856364 -0.252111
19 1 0.752623 0.104456 0.5 -0.496721 -0.624678
20 1 0.143898 0.132403 0.5 -0.842785 0.0447199
21 1 0.914483 0.0804701 0.5 0.4132 0.492005
22 1 0.970144 0.231303 0.5 0.334477 -0.0244354
23 1 0.0629528 0.0115617 0.5 -0.857381 0.163392
24 1 0.813727 0.0963826 0.5 -0.782232 0.0735411
25 1 0.158676 0.164878 0.5 -0.861561 -0.07924
26 1 0.905561 0.522127 0.5 -0.683403 -0.529295
27 1 0.0500783 0.540269 0.5 -0.518482 -0.0309559
28 1 0.0597014 0.146694 0.5 -0.798712 -0.269573
29 1 0.886587 0.154541 0.5 0.53494 -0.576932
30 1 0.0364817 0.00698605 0.5 -0.347729 -0.245858
31 1 0.916131 0.286057 0.5 -0.847174 -0.442136
32 1 0.755312 0.0478405 0.5 -0.795216 -0.377099
33 1 0.888624 0.173119 0.5 0.0383936 -0.038435
34 1 0.966982 0.312872 0.5 -0.651468 -0.00192311
35 1 0.904465 0.210546 0.5 0.0126534 -0.503877
36 1 0.0319613 0.173211 0.5 -0.77495 0.508233
37 1 0.132068 0.965918 0.5 -0.773668 -0.463573
38 1 0.844677 0.403859 0.5 -0.742763 -0.127638
39 1 0.842489 0.0892052 0.5 -0.493586 0.685929
40 1 0.922118 0.200963 0.5 -0.850135 -0.376721
41 1 0.328189 0.979742 0.5 0.648065 0.580958
42 1 0.816706 0.338481 0.5 -0.360936 0.522743
43 1 0.112612 0.973069 0.5 -0.828412 -0.262631
44 1 0.800227 0.421984 0.5 -0.876127 0.301373
45 1 0.898818 0.0973191 0.5 -0.558948 0.294698
46 1 0.933561 0.0162649 0.5 -0.497468 -0.0511399
47 1 0.977788 0.128504 0.5 -0.502124 -0.564067
48 1 0.838649 0.249947 0.5 -0.751173 -0.361786
49 1 0.0222929 0.159246 0.5 -0.682297 -0.00658376
50 1 0.0436379 0.933029 0.5 0.0224623 0.900975
51 1 0.804548 0.280587 0.5 0.507654 -0.507319
52 1 0.159965 0.184775 0.5 -0.898718 0.155404
53 1 0.995783 0.321544 0.5 -0.839243 -0.46042
54 1 0.9969 0.9165 0.5 0.268429 -0.225446
55 1 0.959481 0.126298 0.5 -0.642527 -0.623275
56 1 0.0141684 0.213938 0.5 -0.903715 0.0529308
57 1 0.857552 0.231647 0.5 -0.430423 -0.648386
58 1 0.160923 0.811978 0.5 -0.579616 0.74914
59 1 0.858788 0.179459 0.5 -0.551962 -0.258862
60 1 0.981074 0.396682 0.5 0.366257 -0.465691
61 1 0.8627 0.0382432 0.5 -0.0412346 -0.793012
62 1 0.856846 0.209795 0.5 -0.498311 0.0361762
63 1 0.245523 0.274469 0.5 -0.0532469 -0.795374
64 1 0.134004 0.361547 0.5 -0.618525 -0.708191
65 1 0.0779326 0.364814 0.5 -0.738004 0.0274574
66 1 0.767398 0.1973 0.5 -0.478962 0.801437
67 1 0.081666 0.0418305 0.5 -0.700917 -0.0144889
68 1 0.0213777 0.262507 0.5 -0.540774 -0.44406
69 1 0.957104 0.179121 0.5 -0.653251 0.0845515
70 1 0.085266 0.192133 0.5 -0.721695 -0.254771
71 1 0.00949525 0.408518 0.5 -0.784914 -0.41381
72 1 0.868655 0.124429 0.5 0.136894 -0.586598
73 1 0.0764085 0.233733 0.5 -0.450541 0.263042
74 1 0.942712 0.0726605 0.5 -0.765125 -0.344091
75 1 0.966702 0.49749 0.5 -0.884566 -0.453554
76 1 0.954179 0.266424 0.5 -0.220169 -0.32955
77 1 0.991284 0.908669 0.5 0.462707 -0.0761672
78 1 0.74673 0.00199802 0.5 -0.85885 0.307501
79 1 0.987287 0.221169 0.5 -0.0900445 0.353707
80 1 0.0593982 0.953086 0.5 -0.283917 0.00996077
81 1 0.0492707 0.348672 0.5 -0.644807 0.253603
82 1 0.069623 0.464754 0.5 -0.345621 0.305622
83 1 0.117784 0.297719 0.5 0.17457 -0.712885
84 1 0.921853 0.135139 0.5 -0.807617 0.0306878
85 1 0.83608 0.0340054 0.5 -0.411138 0.198854
86 1 0.216213 0.0214979 0.5 0.752185 0.408708
87 1 0.90044 0.0118806 0.5 -0.665373 -0.701027
88 1 0.961011 0.116594 0.5 -0.840296 -0.309815
89 1 0.00140052 0.382572 0.5 0.0871938 -0.22713
90 1 0.955173 0.227352 0.5 0.231116 -0.30233
91 1 0.00612615 0.199308 0.5 -0.956559 -0.014806
92 1 0.906918 0.30005 0.5 -0.890741 -0.178367
93 1 0.387257 0.00262876 0.5 0.464337 -0.174653
94 1 0.103992 0.948152 0.5 -0.900586 -0.0950773
95 1 0.217158 0.529888 0.5 -0.656891 0.153836
96 1 0.12823 0.297553 0.5 0.411987 -0.676821
97 1 0.0766579 0.37495 0.5 -0.631015 -0.503588
98 1 0.92358 0.115073 0.5 -0.946442 -0.208657
99 1 0.137663 0.00186315 0.5 -0.609171 -0.681394
100 1 0.0342764 0.224991 0.5 -0.640586 -0.17378
101 1 0.774912 0.264862 0.5 -0.959378 0.0897822
102 1 0.976477 0.92037 0.5 0.189808 -0.604019
103 1 0.21366 0.221414 0.5 -0.776871 -0.327795
104 1 0.940088 0.326075 0.5 -0.571231 -0.653766
105 1 0.767082 0.24822 0.5 -0.873199 -0.0665719
106 1 0.911772 0.226422 0.5 -0.920644 -0.263085
107 1 0.964593 0.251825 0.5 -0.363614 -0.624014
108 1 0.921386 0.221714 0.5 -0.843063 -0.26871
109 1 0.814689 0.170135 0.5 -0.650224 -0.210322
110 1 0.83028 0.233322 0.5 -0.89394 -0.0435412
111 1 0.786299 0.196941 0.5 -0.530971 0.120114
112 1 0.906334 0.059106 0.5 -0.368318 0.350851
113 1 0.875772 0.0575464 0.5 0.50264 -0.0564433
114 1 0.777638 0.13131 0.5 -0.795931 -0.449969
115 1 0.865317 0.272132 0.5 -0.466547 0.124132
116 1 0.0302153 0.399296 0.5 -0.540832 -0.737616
117 1 0.937201 0.99697 0.5 -0.781346 -0.318242
118 1 0.952239 0.0798053 0.5 -0.943659 -0.00194593
119 1 0.996838 0.223869 0.5 -0.63754 0.287811
120 1 0.0966489 0.198281 0.5 -0.804854 -0.410005
121 1 0.0313144 0.254443 0.5 0.098462 -0.0744274
122 1 0.0774728 0.219899 0.5 -0.698649 -0.107023
123 1 0.768299 0.2074 0.5 -0.661353 -0.170835
124 1 0.000746927 0.956339 0.5 -0.421256 -0.292292
125 1 0.943724 0.0628727 0.5 -0.589752 -0.703461
126 1 0.920245 0.369541 0.5 -0.407301 -0.334753
127 1 0.0726424 0.00519553 0.5 -0.930884 0.346107
128 1 0.98357 0.0116938 0.5 -0.550906 -0.12775
129 1 0.141071 0.215808 0.5 -0.597794 -0.68559
130 1 0.062025 0.30171 0.5 -0.617275 -0.755093
131 1 0.857214 0.985002 0.5 -0.919716 0.001966
132 1 0.188738 0.0484482 0.5 -0.446521 0.366237
133 1 0.940886 0.182271 0.5 -0.554304 0.0263441
134 1 0.805785 0.319793 0.5 -0.462643 -0.231183
135 1 0.877649 0.0289374 0.5 -0.107695 -0.293143
136 1 0.960642 0.106641 0.5 -0.961521 -0.144741
137 1 0.735962 0.0695925 0.5 -0.832532 -0.476531
138 1 0.0293936 0.287913 0.5 -0.443714 -0.140624
139 1 0.914565 0.0946002 0.5 -0.296668 -0.0589401
140 1 0.000365268 0.41144 0.5 -0.231675 -0.294372
141 1 0.0326732 0.192816 0.5 -0.856958 -0.0200783
142 1 0.00639923 0.157316 0.5 -0.560004 -0.341454
143 1 0.799201 0.4115 0.5 -0.932156 0.00063954
144 1 0.0140471 0.244972 0.5 -0.691505 -0.0317107
145 1 0.98763 0.0910925 0.5 -0.728163 -0.265692
146 1 0.138564 0.98152 0.5 -0.591534 -0.468008
147 1 0.998134 0.235193 0.5 -0.433445 -0.154976
148 1 0.997955 0.129291 0.5 -0.86402 -0.0522875
149 1 0.24088 0.538597 0.5 0.439347 -0.10029
150 1 0.922727 0.191327 0.5 -0.866574 0.0576583
151 1 0.995928 0.159729 0.5 -0.633746 -0.0707913
152 1 0.821923 0.186296 0.5 -0.736511 -0.660724
153 1 0.898968 0.432019 0.5 0.681035 0.117771
154 1 0.0334936 0.20526 0.5 -0.791124 -0.166429
155 1 0.886892 0.128315 0.5 0.104201 -0.750374
156 1 0.866517 0.226754 0.5 -0.516818 -0.495915
157 1 0.921032 0.15623 0.5 -0.426663 -0.329382
158 1 0.808173 0.300867 0.5 -0.310462 -0.666167
159 1 0.931345 0.184664 0.5 -0.648037 -0.156182
160 1 0.928628 0.23904 0.5 -0.819166 -0.297194
161 1 0.950217 0.323882 0.5 -0.394554 -0.198667
162 1 0.867874 0.0187654 0.5 0.656519 -0.585097
163 1 0.868434 0.192203 0.5 -0.666139 0.0085978
164 1 0.187106 0.140095 0.5 -0.87743 -0.0154263
165 1 0.922535 0.0401163 0.5 0.749316 -0.465622
166 1 0.800036 0.293075 0.5 -0.230345 -0.820498
167 1 0.95537 0.98497 0.5 -0.778341 0.0254442
168 1 0.902796 0.948272 0.5 -0.855319 -0.145177
169 1 0.919635 0.994553 0.5 -0.302963 -0.799289
170 1 0.974211 0.026824 0.5 -0.926249 -0.0490072
171 1 0.842506 0.154175 0.5 -0.875105 -0.26938
172 1 0.900997 0.240944 0.5 -0.775162 -0.442154
173 1 0.986192 0.176102 0.5 -0.668234 -0.415092
174 1 0.880516 0.355873 0.5 -0.110151 0.0247199
175 1 0.160101 0.229894 0.5 -0.515754 -0.48456
176 1 0.999479 0.280621 0.5 -0.704687 -0.308861
177 1 0.00591476 0.2292 0.5 -0.904716 -0.0238022
178 1 0.981123 0.269878 0.5 -0.619098 -0.609349
179 1 0.970625 0.080423 0.5 -0.72373 -0.609816
180 1 0.80828 0.271771 0.5 0.554536 -0.615411
181 1 0.969017 0.322654 0.5 -0.303622 0.173707
182 1 0.965755 0.384978 0.5 -0.409581 0.141009
183 1 0.694967 0.949986 0.5 -0.6128 -0.173154
184 1 0.228349 0.0674106 0.5 0.850066 0.44047
185 1 0.883476 0.164595 0.5 0.363084 -0.423042
186 1 0.959225 0.307573 0.5 -0.777091 -0.489393
187 1 0.0286978 0.0211603 0.5 -0.84464 -0.189639
188 1 0.0686297 0.368135 0.5 -0.645811 -0.0955149
189 1 0.180477 0.103285 0.5 -0.850498 -0.381605
190 1 0.111273 0.250517 0.5 -0.604135 0.294659
191 1 0.976335 0.408329 0.5 -0.36074 0.0476618
192 1 0.0150138 0.224042 0.5 -0.877488 -0.153441
193 1 0.903068 0.231357 0.5 -0.752674 -0.230676
194 1 0.0239955 0.124398 0.5 -0.889704 -0.243217
195 1 0.114188 0.220515 0.5 -0.677897 0.102137
196 1 0.93169 0.427459 0.5 -0.924574 0.156814
197 1 0.787639 0.35466 0.5 -0.758752 -0.215589
198 1 0.894657 0.210403 0.5 0.124248 0.0454229
199 1 0.900856 0.146507 0.5 0.359639 -0.140389
200 1 0.932715 0.0872691 0.5 -0.549099 -0.417011
201 1 0.0416183 0.17688 0.5 -0.787157 -0.0189413
202 1 0.98667 0.199448 0.5 -0.499612 0.243325
203 1 0.987659 0.316284 0.5 -0.515611 -0.510819
204 1 0.0236187 0.230569 0.5 -0.819619 -0.242423
205 1 0.0713745 0.298016 0.5 -0.620161 -0.332724
206 1 0.015075 0.311932 0.5 -0.889183 -0.316486
207 1 0.0541075 0.295074 0.5 -0.547663 -0.792064
208 1 0.0428544 0.0612845 0.5 -0.647169 -0.468317
209 1 0.0172616 0.0767002 0.5 -0.926822 -0.178566
210 1 0.85246 0.409345 0.5 -0.637082 -0.213638
211 1 0.00266418 0.889997 0.5 0.906445 -0.201185
212 1 0.959528 0.319369 0.5 -0.502499 0.268085
213 1 0.815147 0.31739 0.5 -0.67918 -0.290721
214 1 0.869727 0.182328 0.5 -0.652068 -0.197937
215 1 0.0157724 0.129874 0.5 -0.930779 -0.20146
216 1 0.822998 0.0794994 0.5 -0.487185 0.517486
217 1 0.761871 0.0916056 0.5 -0.540367 -0.31484
218 1 0.0714229 0.162084 0.5 -0.619273 0.0513378
219 1 0.136936 0.415037 0.5 -0.262603 0.835516
220 1 0.709695 0.0618113 0.5 -0.861855 -0.0923032
221 1 0.948471 0.414587 0.5 -0.709155 0.44459
222 1 0.196056 0.177341 0.5 -0.985556 0.00115994
223 1 0.022322 0.168835 0.5 -0.921987 0.19213
224 1 0.951109 0.359995 0.5 0.197258 -0.478807
225 1 0.821851 0.248673 0.5 -0.686159 -0.506517
226 1 0.138922 0.236902 0.5 -0.889417 0.175006
227 1 0.932227 0.175395 0.5 -0.569822 0.0434476
228 1 0.92054 0.0720353 0.5 0.543585 0.053476
229 1 0.683399 0.0157004 0.5 -0.838935 -0.16995
230 1 0.883955 0.22762 0.5 -0.295369 -0.653313
231 1 0.957916 0.159485 0.5 -0.885071 -0.327891
232 1 0.935588 0.00652045 0.5 -0.638605 -0.733222
233 1 0.873916 0.287173 0.5 -0.702271 -0.481717
234 1 0.833902 0.306268 0.5 -0.697211 -0.456473
235 1 0.785977 0.155734 0.5 -0.911498 -0.0452697
236 1 0.800586 0.0239738 0.5 -0.93136 -0.0363616
237 1 0.899302 0.0224848 0.5 -0.0882785 -0.692532
238 1 0.0781381 0.333533 0.5 -0.892834 -0.280432
239 1 0.0783691 0.17708 0.5 -0.670663 -0.277273
240 1 0.192042 0.00321468 0.5 -0.115534 -0.847561
241 1 0.115232 0.390265 0.5 0.185148 0.781815
242 1 0.85308 0.347456 0.5 -0.639776 0.434561
243 1 0.0596296 0.264453 0.5 -0.617377 -0.663354
244 1 0.83153 0.116613 0.5 -0.822861 -0.372494
245 1 0.934543 0.276706 0.5 -0.628341 -0.667002
246 1 0.930967 0.459268 0.5 -0.743353 0.146803
247 1 0.782444 0.282261 0.5 -0.609589 -0.10288
248 1 0.174255 0.262172 0.5 -0.50061 -0.786182
249 1 0.892402 0.235851 0.5 -0.744906 -0.458697
250 1 0.87388 0.254283 0.5 -0.681593 -0.546466
251 1 0.909566 0.00861123 0.5 -0.576507 -0.651665
252 1 0.962578 0.991602 0.5 -0.797212 -0.0123489
253 1 0.974164 0.0150818 0.5 -0.330934 0.177078
254 1 0.10854 0.300984 0.5 -0.236767 -0.858201
255 1 0.962549 0.276842 0.5 -0.271755 -0.847158
256 1 0.172876 0.0887465 0.5 -0.464327 -0.710942
257 1 0.969903 0.112057 0.5 -0.957449 -0.13106
258 1 0.953748 0.334173 0.5 0.0571848 -0.0167039
259 1 0.890951 0.0623422 0.5 -0.0488726 -0.275027
260 1 0.105449 0.183976 0.5 -0.926536 -0.0872873
261 1 0.805625 0.0824393 0.5 -0.848887 0.244364
262 1 0.939328 0.202942 0.5 -0.576015 -0.32553
263 1 0.776893 0.200262 0.5 -0.493151 0.15636
264 1 0.919051 0.497113 0.5 -0.329854 -0.864272
265 1 0.930439 0.208076 0.5 -0.759616 -0.311933
266 1 0.996111 0.311202 0.5 -0.811669 -0.347934
267 1 0.931478 0.416679 0.5 -0.658292 0.411317
268 1 0.863828 0.352797 0.5 -0.712691 -0.368919
269 1 0.980299 0.279387 0.5 -0.657005 -0.687227
270 1 0.907169 0.289799 0.5 -0.810133 -0.450586
271 1 0.987576 0.965852 0.5 0.0981287 -0.496918
272 1 0.880159 0.436554 0.5 -0.694503 -0.646515
273 1 0.103886 0.204205 0.5 -0.594814 -0.659051
274 1 0.920861 0.982248 0.5 -0.590835 -0.670892
275 1 0.0160013 0.118123 0.5 -0.818029 -0.0781277
276 1 0.170864 0.473547 0.5 -0.695639 -0.500157
277 1 0.142574 0.368916 0.5 -0.183531 -0.63771
278 1 0.0276393 0.278595 0.5 -0.705237 -0.209155
279 1 0.01421 0.23365 0.5 -0.710437 -0.169316
280 1 0.924034 0.311492 0.5 -0.540054 -0.477618
281 1 0.885555 0.034501 0.5 -0.0593602 -0.738584
282 1 0.102611 0.433076 0.5 -0.216593 -0.460309
283 1 0.161924 0.123179 0.5 -0.843115 0.216517
284 1 0.0258891 0.0824822 0.5 -0.887325 -0.170297
285 1 0.0972694 0.824065 0.5 0.601388 0.45623
286 1 0.177333 0.176789 0.5 -0.814822 -0.132634
287 1 0.842085 0.940865 0.5 0.00628695 -0.460688
288 1 0.0519806 0.0984194 0.5 -0.885528 -0.284507
289 1 0.905175 0.159508 0.5 -0.516814 0.3445
290 1 0.923751 0.104498 0.5 -0.742631 -0.200918
291 1 0.0599799 0.420438 0.5 0.11001 -0.738915
292 1 0.0489853 0.183151 0.5 -0.70858 -0.0994588
293 1 0.913448 0.141129 0.5 -0.888652 0.0756443
294 1 0.864566 0.257261 0.5 -0.681648 -0.177912
295 1 0.210699 0.266017 0.5 -0.768178 0.32017
296 1 0.114613 0.180105 0.5 -0.932425 -0.164572
297 1 0.630297 0.17257 0.5 -0.854243 0.153296
298 1 0.930232 0.152965 0.5 -0.415806 -0.858264
299 1 0.904873 0.200539 0.5 -0.676332 0.16216
300 1 0.149723 0.211231 0.5 -0.659275 -0.68459
301 1 0.0683141 0.173922 0.5 -0.603691 -0.295628
302 1 0.134292 0.096454 0.5 -0.869853 -0.0101801
303 1 0.722778 0.158494 0.5 -0.795083 -0.55042
304 1 0.10884 0.848708 0.5 -0.789557 0.127226
305 1 0.744361 0.076099 0.5 -0.740546 -0.537741
306 1 0.757446 0.193461 0.5 -0.543528 0.324872
307 1 0.00654687 0.219799 0.5 -0.858157 0.0255072
308 1 0.779019 0.101826 0.5 -0.757431 0.255326
309 1 0.969158 0.365774 0.5 0.729508 0.0190819
310 1 0.971095 0.00618606 0.5 -0.638266 0.199084
311 1 0.970462 0.122133 0.5 -0.586447 -0.559396
312 1 0.951464 0.198009 0.5 -0.447854 -0.142584
313 1 0.848423 0.214134 0.5 -0.594896 -0.0134214
314 1 0.954943 0.0495216 0.5 -0.74187 -0.396589
315 1 0.911381 0.4802 0.5 -0.868846 -0.204202
316 1 0.268292 0.568147 0.5 -0.542719 -0.636021
317 1 0.0567856 0.500347 0.5 -0.262094 -0.345237
318 1 0.290406 0.495914 0.5 -0.610063 -0.0200372
319 1 0.288126 0.353881 0.5 -0.720808 -0.320582
320 1 0.0699812 0.317588 0.5 -0.854272 -0.332448
321 1 0.213998 0.1901 0.5 -0.703932 -0.459422
322 1 0.317587 0.499739 0.5 -0.830942 -0.109567
323 1 0.112232 0.23988 0.5 -0.947233 -0.0138695
324 1 0.842635 0.333921 0.5 -0.937035 0.23211
325 1 0.033216 0.235328 0.5 -0.819475 -0.142875
326 1 0.0865778 0.226142 0.5 -0.806431 0.302605
327 1 0.183547 0.259173 0.5 -0.416456 -0.514012
328 1 0.15111 0.458109 0.5 -0.540004 0.516823
329 1 0.927325 0.660095 0.5 -0.8709 0.110573
330 1 0.267663 0.577842 0.5 -0.886785 0.0325344
331 1 0.958232 0.472391 0.5 -0.717923 0.668175
332 1 0.241627 0.47871 0.5 0.00523775 -0.262911
333 1 0.313794 0.435887 0.5 -0.74533 0.304315
334 1 0.0863307 0.338483 0.5 -0.726344 -0.410375
335 1 0.165039 0.392717 0.5 0.00766583 0.0663321
336 1 0.318743 0.279791 0.5 0.546458 -0.391715
337 1 0.193039 0.306472 0.5 -0.469604 -0.644331
338 1 0.994411 0.363808 0.5 -0.223007 -0.109919
339 1 0.196867 0.441241 0.5 -0.0635208 -0.157845
340 1 0.939711 0.401325 0.5 0.0370196 -0.116154
341 1 0.0825464 0.411874 0.5 -0.560842 0.0324713
342 1 0.349174 0.331277 0.5 -0.918238 0.065261
343 1 0.96811 0.445644 0.5 -0.702513 -0.0470722
344 1 0.0735823 0.505626 0.5 0.400779 -0.0909366
345 1 0.169418 0.484595 0.5 -0.754944 -0.433169
346 1 0.161848 0.325753 0.5 -0.41164 -0.857864
347 1 0.211063 0.308027 0.5 -0.751341 -0.444364
348 1 0.208189 0.470827 0.5 -0.169853 0.445536
349 1 0.740234 0.362328 0.5 0.251138 -0.722354
350 1 0.297619 0.45705 0.5 -0.929956 0.138191
351 1 0.268636 0.621159 0.5 -0.630925 0.23656
352 1 0.953371 0.520869 0.5 -0.476628 -0.752312
353 1 0.151919 0.470909 0.5 -0.360684 -0.615557
354 1 0.061172 0.31105 0.5 -0.767397 -0.590328
355 1 0.244413 0.435423 0.5 -0.62615 -0.190612
356 1 0.993111 0.255299 0.5 -0.436897 -0.818759
357 1 0.156704 0.299982 0.5 -0.212888 -0.658865
358 1 0.94259 0.305029 0.5 -0.880489 -0.327943
359 1 0.902196 0.386166 0.5 -0.439615 0.0874091
360 1 0.00461618 0.242271 0.5 -0.405288 -0.149781
361 1 0.98667 0.457262 0.5 -0.531327 -0.212344
362 1 0.23386 0.40898 0.5 -0.552274 0.202389
363 1 0.658483 0.322808 0.5 -0.690553 -0.16362
364 1 0.0681117 0.338338 0.5 -0.684212 -0.594144
365 1 0.0421447 0.210874 0.5 -0.526053 0.340696
366 1 0.308977 0.495257 0.5 -0.810961 0.192888
367 1 0.186332 0.37626 0.5 -0.655331 -0.433066
368 1 0.185926 0.408696 0.5 0.293972 0.626519
369 1 0.270483 0.50395 0.5 -0.931666 0.161292
370 1 0.161581 0.383832 0.5 0.210301 0.20454
371 1 0.0761086 0.354622 0.5 -0.781713 -0.0489137
372 1 0.110433 0.29101 0.5 0.233454 -0.735768
373 1 0.0384824 0.47777 0.5 -0.61174 -0.395167
374 1 0.0818331 0.440191 0.5 -0.249255 -0.844623
375 1 0.262409 0.240495 0.5 -0.112971 -0.507468
376 1 0.140867 0.174907 0.5 -0.953088 0.156956
377 1 0.987038 0.488817 0.5 -0.62197 -0.32389
378 1 0.181267 0.620037 0.5 0.111049 -0.889544
379 1 0.0860163 0.400946 0.5 -0.561807 0.156931
380 1 0.0610993 0.255207 0.5 -0.615877 -0.405208
381 1 0.930721 0.369511 0.5 -0.407164 -0.21546
382 1 0.216036 0.442059 0.5 -0.723176 0.2016
383 1 0.296054 0.381796 0.5 -0.962669 -0.0301523
384 1 0.153425 0.355587 0.5 -0.143935 -0.947412
385 1 0.145163 0.273679 0.5 -0.108135 -0.913884
386 1 0.297033 0.425348 0.5 -0.832175 0.228792
387 1 0.112641 0.380647 0.5 0.253271 0.034576
388 1 0.165491 0.266436 0.5 -0.274331 -0.687174
389 1 0.10009 0.291762 0.5 -0.120133 -0.793261
390 1 0.975187 0.470492 0.5 -0.839426 -0.0887926
391 1 0.00211844 0.500956 0.5 -0.715153 -0.146026
392 1 0.268738 0.432066 0.5 -0.566951 0.336948
393 1 0.116527 0.399588 0.5 -0.173605 0.53802
394 1 0.0600305 0.458739 0.5 -0.369545 0.118161
395 1 0.886861 0.348409 0.5 0.59057 0.0465375
396 1 0.939975 0.465336 0.5 -0.72234 0.12502
397 1 0.249476 0.622724 0.5 -0.27667 -0.356936
398 1 0.172148 0.399203 0.5 0.221897 -0.0533513
399 1 0.0968542 0.252695 0.5 -0.47077 0.503956
400 1 0.163947 0.403929 0.5 -0.200659 0.480344
401 1 0.0596241 0.384701 0.5 -0.430542 -0.0769976
402 1 0.994966 0.44064 0.5 -0.802941 0.0631058
403 1 0.200262 0.431722 0.5 -0.232521 0.0382609
404 1 0.0651344 0.436167 0.5 0.166505 -0.628998
405 1 0.343196 0.462089 0.5 -0.884207 0.29322
406 1 0.0969028 0.355425 0.5 -0.742488 -0.431425
407 1 0.175241 0.408384 0.5 -0.00839156 0.563815
408 1 0.0927981 0.28527 0.5 -0.693323 -0.596755
409 1 0.149371 0.231384 0.5 -0.499123 -0.353357
410 1 0.234588 0.429877 0.5 -0.71274 0.495652
411 1 0.0413881 0.383984 0.5 -0.954393 -0.0359468
412 1 0.370399 0.407014 0.5 -0.827505 0.149091
413 1 0.179053 0.187395 0.5 -0.575787 -0.191616
414 1 0.140267 0.378598 0.5 -0.0595284 0.0458909
415 1 0.130431 0.218845 0.5 -0.454958 -0.287138
416 1 0.817665 0.410746 0.5 -0.746244 0.567092
417 1 0.0629271 0.219576 0.5 -0.369268 -0.109542
418 1 0.110992 0.418642 0.5 0.351223 0.244209
419 1 0.106242 0.471156 0.5 -0.558237 -0.659792
420 1 0.889104 0.432311 0.5 -0.345518 -0.366362
421 1 0.882604 0.260065 0.5 -0.78756 -0.526725
422 1 0.108039 0.52594 0.5 -0.308625 0.309112
423 1 0.0566348 0.478303 0.5 -0.625017 -0.211206
424 1 0.287882 0.376534 0.5 -0.833095 0.279927
425 1 0.0142493 0.322429 0.5 -0.772669 -0.335941
426 1 0.894327 0.458655 0.5 0 0
427 1 0.205411 0.414334 0.5 0.169312 0.508377
428 1 0.253655 0.522576 0.5 -0.850316 0.024918
429 1 0.15899 0.288777 0.5 -0.250903 -0.815085
430 1 0.118496 0.53852 0.5 0.0642525 0.125846
431 1 0.26151 0.39222 0.5 -0.583414 -0.241975
432 1 0.154573 0.402534 0.5 -0.407082 0.62445
433 1 0.102947 0.370623 0.5 -0.475563 -0.623192
434 1 0.221463 0.493931 0.5 -0.438454 0.854842
435 1 0.0322664 0.368074 0.5 -0.326005 -0.126576
436 1 0.188251 0.485346 0.5 -0.842609 -0.504887
437 1 0.0672466 0.395659 0.5 0.692245 0.295758
438 1 0.156529 0.411911 0.5 0.153532 0.883366
439 1 0.285722 0.407381 0.5 -0.539727 -0.250301
440 1 0.869772 0.318095 0.5 -0.764322 -0.306273
441 1 0.192178 0.263958 0.5 -0.344351 -0.445442
442 1 0.119262 0.646539 0.5 -0.387985 0.231331
443 1 0.194844 0.294531 0.5 -0.590471 -0.678476
444 1 0.252871 0.5131 0.5 -0.914302 0.165662
445 1 0.13846 0.524131 0.5 -0.436172 -0.580523
446 1 0.218084 0.553615 0.5 0.258047 -0.142594
447 1 0.189638 0.327134 0.5 -0.378309 -0.607564
448 1 0.991788 0.383453 0.5 0.298658 -0.45385
449 1 0.224107 0.469596 0.5 -0.00246565 -0.233492
450 1 0.975974 0.201396 0.5 -0.448039 0.246437
451 1 0.0581831 0.353414 0.5 -0.988031 0.134028
452 1 0.773681 0.459061 0.5 -0.702445 -0.160462
453 1 0.913241 0.540142 0.5 -0.679497 -0.405809
454 1 0.0036065 0.361666 0.5 -0.414164 -0.155248
455 1 0.191313 0.400825 0.5 0.564291 0.557933
456 1 0.170665 0.284253 0.5 -0.340499 -0.600522
457 1 0.81378 0.537768 0.5 -0.62285 -0.638292
458 1 0.0700249 0.307689 0.5 -0.814009 -0.428862
459 1 0.994569 0.473927 0.5 -0.791108 0.133419
460 1 0.139389 0.294506 0.5 0.317972 -0.855209
461 1 0.252237 0.69414 0.5 -0.857468 0.415485
462 1 0.252778 0.49322 0.5 -0.846773 -0.0978603
463 1 0.125141 0.354081 0.5 -0.365709 -0.776706
464 1 0.888603 0.103049 0.5 -0.412586 -0.43536
465 1 0.96008 0.285954 0.5 -0.631791 -0.573833
466 1 0.295937 0.300315 0.5 0.0982261 0.284517
467 1 0.134666 0.447421 0.5 -0.860763 -0.303723
468 1 0.975746 0.460785 0.5 -0.828353 -0.425192
469 1 0.893659 0.225925 0.5 -0.303546 -0.267752
470 1 0.977481 0.441205 0.5 -0.821845 -0.551124
471 1 0.0867409 0.369411 0.5 -0.879742 -0.146394
472 1 0.115582 0.466747 0.5 -0.710355 -0.643211
473 1 0.0923474 0.485663 0.5 0.504933 -0.646045
474 1 0.0288665 0.268543 0.5 -0.759676 -0.41982
475 1 0.201839 0.605612 0.5 -0.0696235 -0.752621
476 1 0.973856 0.250063 0.5 0.257457 -0.854429
477 1 0.313245 0.338573 0.5 0.562405 0.306623
478 1 0.0414273 0.155284 0.5 -0.714539 0.406692
479 1 0.00253188 0.468226 0.5 -0.7807 0.516135
480 1 0.230313 0.297183 0.5 -0.770003 -0.0981794
481 1 0.0859572 0.268198 0.5 -0.163284 -0.297504
482 1 0.900883 0.450963 0.5 0.0515539 -0.247838
483 1 0.279193 0.391296 0.5 -0.81277 -0.156249
484 1 0.22255 0.504865 0.5 -0.382373 0.622202
485 1 0.182868 0.4551 0.5 0.158201 0.550748
486 1 0.275929 0.424175 0.5 -0.523932 0.0819806
487 1 0.197241 0.587955 0.5 0.120925 -0.851225
488 1 0.993842 0.182794 0.5 -0.602272 -0.373148
489 1 0.269735 0.453292 0.5 -0.626477 0.635842
490 1 0.201116 0.577671 0.5 0.411443 -0.857427
491 1 0.037309 0.455874 0.5 -0.0959708 -0.119853
492 1 0.050954 0.172375 0.5 -0.817619 -0.219408
493 1 0.0686032 0.261565 0.5 -0.736864 -0.421404
494 1 0.014731 0.185106 0.5 -0.795869 0.258956
495 1 0.20506 0.142234 0.5 -0.696098 -0.411898
496 1 0.951599 0.290052 0.5 -0.848454 -0.44837
497 1 0.231054 0.232504 0.5 -0.852219 0.264474
498 1 0.225881 0.437216 0.5 -0.856759 0.14148
499 1 0.247568 0.299845 0.5 -0.563483 -0.496864
500 1 0.0120804 0.440779 0.5 -0.944813 0.117894
501 1 0.0510711 0.314879 0.5 -0.809869 -0.398984
502 1 0.084586 0.279284 0.5 -0.576549 -0.143417
503 1 0.113617 0.281794 0.5 0.281203 -0.435456
504 1 0.40464 0.226073 0.5 -0.265043 -0.328751
505 1 0.0110213 0.517134 0.5 -0.568023 -0.730592
506 1 0.0327259 0.323638 0.5 -0.293681 -0.646239
507 1 0.0964803 0.324914 0.5 -0.198812 -0.293737
508 1 0.329476 0.333065 0.5 -0.239307 0.657521
509 1 0.211069 0.317906 0.5 -0.532644 -0.48635
510 1 0.919829 0.359725 0.5 -0.0649675 -0.308681
511 1 0.0586191 0.275102 0.5 -0.485853 -0.716885
512 1 0.978227 0.431553 0.5 -0.754076 -0.0854866
513 1 0.989144 0.295019 0.5 -0.900177 -0.26909
514 1 0.959739 0.55905 0.5 0.702445 -0.414778
515 1 0.979324 0.573385 0.5 -0.55491 0.433406
516 1 0.785804 0.602821 0.5 -0.441435 -0.627289
517 1 0.113454 0.368421 0.5 -0.118047 -0.682817
518 1 0.0482155 0.434132 0.5 -0.538858 -0.495285
519 1 0.0512633 0.411729 0.5 0.0862029 -0.158726
520 1 0.0213656 0.456338 0.5 -0.764721 -0.103562
521 1 0.0229879 0.209565 0.5 -0.880406 -0.228486
522 1 0.945002 0.56631 0.5 -0.072733 0.179612
523 1 0.0423332 0.254283 0.5 0.0167639 0.0152707
524 1 0.16864 0.235042 0.5 -0.834886 -0.416371
525 1 0.0209754 0.33616 0.5 -0.361207 -0.281019
526 1 0.121631 0.214025 0.5 -0.38577 0.152257
527 1 0.370005 0.50148 0.5 -0.772972 -0.335282
528 1 0.158862 0.582676 0.5 -0.370039 -0.293107
529 1 0.156161 0.270723 0.5 -0.116449 -0.692222
530 1 0.295569 0.416017 0.5 -0.555635 0.163551
531 1 0.970356 0.608393 0.5 -0.72529 0.103715
532 1 0.059788 0.24274 0.5 -0.731627 -0.346073
533 1 0.0422068 0.414147 0.5 -0.0505801 -0.267567
534 1 0.159595 0.479331 0.5 -0.35175 -0.567342
535 1 0.13913 0.256571 0.5 -0.399943 -0.423889
536 1 0.160291 0.561633 0.5 -0.797753 -0.481354
537 1 0.887656 0.18293 0.5 -0.938564 -0.179678
538 1 0.192919 0.316112 0.5 -0.27756 -0.767755
539 1 0.851137 0.439194 0.5 -0.642515 -0.593305
540 1 0.922476 0.445398 0.5 -0.328762 -0.0665019
541 1 0.325051 0.548512 0.5 -0.861921 -0.297523
542 1 0.0921499 0.414969 0.5 -0.15417 0.495641
543 1 0.276331 0.572926 0.5 -0.571939 -0.288287
544 1 0.206346 0.0212029 0.5 0.785423 0.424443
545 1 0.830402 0.192855 0.5 -0.684366 -0.571658
546 1 0.188461 0.366574 0.5 -0.630685 -0.624794
547 1 0.753163 0.803434 0.5 -0.041324 0.915646
548 1 0.132209 0.470193 0.5 -0.240354 -0.56659
549 1 0.211366 0.385935 0.5 0.515756 -0.294882
550 1 0.057912 0.375143 0.5 -0.656932 0.00446219
551 1 0.919811 0.243256 0.5 -0.810603 -0.520733
552 1 0.197949 0.421315 0.5 -0.225397 0.928951
553 1 0.0238726 0.316788 0.5 -0.57293 -0.212435
554 1 0.159034 0.43922 0.5 -0.464772 0.679646
555 1 0.0861444 0.236467 0.5 -0.653509 0.356254
556 1 0.907834 0.414643 0.5 0.865232 0.216975
557 1 0.173006 0.546612 0.5 -0.130806 -0.720292
558 1 0.259764 0.329723 0.5 -0.66454 0.586324
559 1 0.271394 0.534599 0.5 -0.915996 -0.00386343
560 1 0.0699101 0.328204 0.5 -0.633099 -0.476127
561 1 0.38793 0.447203 0.5 -0.912016 0.10529
562 1 0.226733 0.448472 0.5 -0.364633 -0.23289
563 1 0.25235 0.441678 0.5 -0.497193 -0.54368
564 1 0.877523 0.0188573 0.5 0.183635 -0.109666
565 1 0.948677 0.492359 0.5 -0.344161 -0.53331
566 1 0.888555 0.543984 0.5 -0.198608 0.532164
567 1 0.213759 0.591751 0.5 -0.0453991 -0.769298
568 1 0.26805 0.41803 0.5 -0.72459 -0.000704578
569 1 0.140135 0.246713 0.5 -0.85037 0.199176
570 1 0.976552 0.353474 0.5 -0.584146 -0.0367046
571 1 0.179045 0.243711 0.5 -0.225406 -0.171613
572 1 0.0743362 0.434166 0.5 0.0940735 -0.476068
573 1 0.878402 0.211374 0.5 -0.397648 -0.349544
574 1 0.132486 0.371544 0.5 -0.429147 -0.161182
575 1 0.167679 0.49391 0.5 -0.639725 -0.46699
576 1 0.219725 0.645317 0.5 -0.0230591 -0.259514
577 1 0.0161312 0.301684 0.5 -0.911197 -0.362272
578 1 0.0792406 0.312762 0.5 -0.81131 -0.424437
579 1 0.0474537 0.337409 0.5 -0.568784 -0.068242
580 1 0.205561 0.526852 0.5 -0.677513 -0.0136735
581 1 0.244724 0.469419 0.5 -0.474421 0.351197
582 1 0.221042 0.609543 0.5 0.503218 -0.41162
583 1 0.0433922 0.242244 0.5 -0.836616 -0.336653
584 1 0.915005 0.316211 0.5 -0.643432 -0.205964
585 1 0.0978541 0.4548 0.5 -0.625676 -0.533317
586 1 0.234437 0.575469 0.5 -0.29204 -0.554097
587 1 0.161158 0.363573 0.5 0.511878 -0.771924
588 1 0.173207 0.463815 0.5 -0.538314 -0.0838764
589 1 0.0381146 0.679866 0.5 -0.48492 0.160659
590 1 0.287641 0.210417 0.5 -0.567803 0.194333
591 1 0.913071 0.405514 0.5 0.137429 -0.106363
592 1 0.0846732 0.689451 0.5 -0.654144 0.597832
593 1 0.399277 0.198219 0.5 -0.427467 -0.2379
594 1 0.961401 0.575622 0.5 -0.443076 0.431682
595 1 0.00372077 0.436278 0.5 -0.899094 0.0377068
596 1 0.820357 0.196032 0.5 -0.761677 -0.382916
597 1 0.957856 0.443319 0.5 -0.552449 -0.0641832
598 1 0.806164 0.165012 0.5 -0.421743 -0.00191634
599 1 0.0215682 0.250838 0.5 -0.690975 -0.238094
600 1 0.998938 0.290473 0.5 -0.954064 -0.174468
601 1 0.023773 0.382639 0.5 -0.803897 -0.292732
602 1 0.0941803 0.707617 0.5 -0.121505 0.0238969
603 1 0.993707 0.430988 0.5 -0.802481 0.0626464
604 1 0.986278 0.337365 0.5 -0.877495 0.0911609
605 1 0.33413 0.457956 0.5 -0.881851 0.149515
606 1 0.823962 0.321409 0.5 -0.867446 0.122452
607 1 0.252146 0.483532 0.5 -0.787203 -0.188823
608 1 0.0499717 0.368181 0.5 -0.781279 -0.500681
609 1 0.289009 0.485167 0.5 -0.760485 -0.0650603
610 1 0.234759 0.372661 0.5 -0.161675 -0.828834
611 1 0.924696 0.523482 0.5 -0.586976 -0.602037
612 1 0.894062 0.356986 0.5 0.679316 -0.193232
613 1 0.00393087 0.326691 0.5 -0.766709 -0.400561
614 1 0.915022 0.295558 0.5 -0.86174 -0.385731
615 1 0.276851 0.403328 0.5 -0.860621 -0.0764001
616 1 0.113712 0.619689 0.5 -0.229647 -0.163514
617 1 0.0234456 0.392405 0.5 -0.330862 -0.487282
618 1 0.0981938 0.495279 0.5 0.462046 0.376482
619 1 0.189104 0.475495 0.5 -0.942046 -0.190279
620 1 0.178241 0.390486 0.5 0.501025 0.0173653
621 1 0.262754 0.529211 0.5 -0.904361 -0.20225
622 1 0.264828 0.75547 0.5 -0.21373 0.731431
623 1 0.020615 0.34958 0.5 -0.179698 0.10777
624 1 0.11731 0.457109 0.5 -0.760667 -0.370918
625 1 0.233255 0.169684 0.5 -0.582062 -0.38794