# LAMMPS data file written by Ovito 3.7.11
9891 atoms
1 atom types
-58.36 58.36 xlo xhi
-58.36 58.36 ylo yhi
-0.5 0.5 zlo zhi

Atoms  # atomic

1 1 -49.587943416 -35.25609304 0.0
2 1 -55.072943032 -36.42002488 0.0
3 1 -49.821570168 -44.51373984 0.0
4 1 -50.346051488 -25.63463 0.0
5 1 -55.098831528 -34.27342736 0.0
6 1 -47.522454624 -40.26034632 0.0
7 1 57.91436304 -26.0157208 0.0
8 1 -43.51006456 -37.08871376 0.0
9 1 -51.150310648 -46.60769664 0.0
10 1 54.38264928 -40.99404824 0.0
11 1 -54.37074384 -41.82462776 0.0
12 1 -54.8823276 -26.8584392 0.0
13 1 -50.365765496 -43.32669744 0.0
14 1 -53.723379704 -38.44896864 0.0
15 1 -47.541666736 -44.67971568 0.0
16 1 -57.013973288 -10.01539304 0.0
17 1 52.04498112 -29.31387784 0.0
18 1 57.72866152 -54.655844112 0.0
19 1 -48.602348064 -42.58926048 0.0
20 1 49.39870528 -38.84289864 0.0
21 1 -49.580426648 -37.15512744 0.0
22 1 -46.06891712 -39.18862328 0.0
23 1 -41.62223528 -42.31018296 0.0
24 1 -50.79397616 -35.22282784 0.0
25 1 -45.77326536 -43.47154696 0.0
26 1 -55.789638848 -31.03549784 0.0
27 1 57.83919536 -34.49274424 0.0
28 1 -46.90008024 -27.85791256 0.0
29 1 -58.1472042664 -28.2001356 0.0
30 1 -57.625895396 -48.209363496 0.0
31 1 -46.76054148 -34.00508808 0.0
32 1 -54.375972896 -39.52360968 0.0
33 1 57.44993416 -28.0635732 0.0
34 1 -53.917274968 -31.98092984 0.0
35 1 -56.114167136 -40.70481608 0.0
36 1 55.80663328 -26.84431608 0.0
37 1 55.08401976 -48.342646064 0.0
38 1 55.50246096 -24.50664792 0.0
39 1 -53.153039096 -21.94534424 0.0
40 1 -53.767453176 -34.2351432 0.0
41 1 -43.66763656 -50.939035776 0.0
42 1 51.03885472 -14.88541832 0.0
43 1 -41.04703912 -32.60946704 0.0
44 1 53.2523328 -40.99369808 0.0
45 1 -53.323532 -37.31281616 0.0
46 1 -52.59508248 -34.0571452 0.0
47 1 -58.3204868951 -33.43187616 0.0
48 1 -49.710569448 -26.5882324 0.0
49 1 58.23884464 -49.382586248 0.0
50 1 50.18061256 -37.94228712 0.0
51 1 47.54075632 -40.04873296 0.0
52 1 -50.566862384 -27.4221968 0.0
53 1 -47.698071536 -46.701294408 0.0
54 1 -56.33922664 -38.62825056 0.0
55 1 -50.195657768 -36.23420664 0.0
56 1 -40.58692888 -24.68137776 0.0
57 1 52.98457712 -36.69758504 0.0
58 1 52.9593656 -57.192729968 0.0
59 1 55.47491504 -32.47920752 0.0
60 1 -52.724139784 -25.70629608 0.0
61 1 56.3821796 -25.78963416 0.0
62 1 -57.166514656 -33.38939008 0.0
63 1 -40.5607836 -29.33593792 0.0
64 1 57.1881312 -26.89135424 0.0
65 1 -55.450613936 -32.19324352 0.0
66 1 -49.292501752 -30.05329904 0.0
67 1 50.9021756 -31.35437688 0.0
68 1 -54.744177808 -21.79057352 0.0
69 1 -40.98599456 -41.38506024 0.0
70 1 -51.18183672 -30.81606424 0.0
71 1 -58.0377582568 -20.99746112 0.0
72 1 50.31659136 -23.82885488 0.0
73 1 -46.16357704 -34.93056096 0.0
74 1 57.33356432 -35.46805656 0.0
75 1 -48.591633168 -31.08930576 0.0
76 1 -54.866325288 -28.69234384 0.0
77 1 54.34529888 -43.10516288 0.0
78 1 56.71097984 -34.53032808 0.0
79 1 54.8712392 -21.13227272 0.0
80 1 -50.277408456 -38.25743112 0.0
81 1 -58.1557154888 -23.901338 0.0
82 1 50.98808152 -12.75177672 0.0
83 1 -49.222259656 -27.74831248 0.0
84 1 -53.28857436 -33.1473128 0.0
85 1 53.41877552 -29.29683672 0.0
86 1 -36.87686696 -43.1268728 0.0
87 1 49.93480024 -35.67943648 0.0
88 1 -53.118945184 -41.55302032 0.0
89 1 -45.27942304 -33.86852568 0.0
90 1 52.2275312 -14.79787832 0.0
91 1 -50.95697564 -37.23379672 0.0
92 1 -54.213136824 -29.66975712 0.0
93 1 -45.51776528 -49.958401024 0.0
94 1 -58.1117400616 -37.49011384 0.0
95 1 -55.044661776 -14.16443888 0.0
96 1 -53.875827696 -26.34638856 0.0
97 1 54.5613476 -14.8969736 0.0
98 1 56.52936352 -44.0728884 0.0
99 1 -44.60256376 -47.903148576 0.0
100 1 -45.32039176 -31.86491016 0.0
101 1 54.40867784 -34.35291368 0.0
102 1 54.95282648 -47.053823824 0.0
103 1 -44.3641048 -45.56900536 0.0
104 1 -45.50994504 -29.69403488 0.0
105 1 46.91396992 -34.85305888 0.0
106 1 55.13350904 -23.48861608 0.0
107 1 57.08705168 -31.39604592 0.0
108 1 -44.76655536 -32.87862336 0.0
109 1 -55.085607152 -52.443533232 0.0
110 1 -57.946887068 -25.14744072 0.0
111 1 -57.090798392 -44.96824752 0.0
112 1 56.26464256 -27.85301032 0.0
113 1 -56.649620136 -32.38349712 0.0
114 1 -56.797784504 -25.3054796 0.0
115 1 55.89709128 -28.92741792 0.0
116 1 -52.317020424 -26.73273176 0.0
117 1 55.868028 -31.3521592 0.0
118 1 -53.915103976 -36.34695816 0.0
119 1 -52.915817368 -47.936192008 0.0
120 1 -45.52336784 -36.0834044 0.0
121 1 53.46581368 -33.48299952 0.0
122 1 58.31051072 -9.6655832 0.0
123 1 -51.23296008 -26.53115632 0.0
124 1 55.53806056 -34.39084768 0.0
125 1 57.08121568 -37.80350704 0.0
126 1 -57.5232553296 -34.57619904 0.0
127 1 57.00943288 -49.181244248 0.0
128 1 -53.82070084 -40.59019704 0.0
129 1 -49.599825512 -39.43431888 0.0
130 1 58.09714656 -5.11828872 0.0
131 1 -46.01732688 -33.03082624 0.0
132 1 -57.6379479032 -46.07195184 0.0
133 1 -55.915486352 -51.247771848 0.0
134 1 55.04293432 -39.84365592 0.0
135 1 57.80487968 -32.24004824 0.0
136 1 -56.890833688 -35.4910504 0.0
137 1 54.37693 -46.09401192 0.0
138 1 -42.37659664 -30.4277368 0.0
139 1 54.4837288 -44.96439576 0.0
140 1 57.62676496 -21.7501884 0.0
141 1 -47.942471544 -32.06741936 0.0
142 1 -55.642630008 -37.54217096 0.0
143 1 -56.0072166 -17.3206644 0.0
144 1 -54.160857936 -43.7279808 0.0
145 1 57.2225636 -47.31892996 0.0
146 1 -55.386943176 -45.97040544 0.0
147 1 -53.595711368 -25.05651584 0.0
148 1 56.59064152 -24.70483848 0.0
149 1 -55.99274332 -12.12825848 0.0
150 1 55.70975568 -40.977474 0.0
151 1 -48.873628688 -46.5928732 0.0
152 1 53.73181856 -21.49305424 0.0
153 1 -54.771198488 -25.35940424 0.0
154 1 -48.16159 -47.750233704 0.0
155 1 -52.931913056 -43.7081384 0.0
156 1 -51.66534932 -27.6416304 0.0
157 1 -54.796398336 -49.011533368 0.0
158 1 -55.712486928 -25.97580256 0.0
159 1 55.3054376 -20.0589156 0.0
160 1 58.00447088 -38.64505824 0.0
161 1 -51.12610292 -28.62102792 0.0
162 1 53.19082136 -45.21417656 0.0
163 1 -57.4578617824 -40.75710664 0.0
164 1 -53.739942272 -23.80959608 0.0
165 1 -55.675241576 -39.67534568 0.0
166 1 52.5362556 -35.50132176 0.0
167 1 -49.114690504 -38.18693224 0.0
168 1 -51.768238 -43.49325688 0.0
169 1 -54.411058928 -35.22656288 0.0
170 1 58.1405664 -43.037582 0.0
171 1 -56.108424512 -42.90417104 0.0
172 1 53.4204096 -22.62652216 0.0
173 1 -47.237657824 -37.17228528 0.0
174 1 -56.794329592 -39.83758648 0.0
175 1 -51.59619272 -25.39733824 0.0
176 1 50.48630224 -26.07373064 0.0
177 1 57.6958632 -24.93104184 0.0
178 1 -47.998450456 -29.83339856 0.0
179 1 -43.42205768 -41.25013192 0.0
180 1 -50.414157608 -29.86934832 0.0
181 1 -55.49697512 -35.41646632 0.0
182 1 54.56461576 -16.71908952 0.0
183 1 -56.898152032 -53.372075848 0.0
184 1 -34.2053796 -46.67352672 0.0
185 1 57.19466752 -33.40829872 0.0
186 1 55.55206696 -15.41135864 0.0
187 1 -48.730623344 -48.770191424 0.0
188 1 -46.31542976 -44.82830024 0.0
189 1 -49.231585584 -43.55488504 0.0
190 1 -51.066248904 -18.75071784 0.0
191 1 55.50923072 -14.32084368 0.0
192 1 -57.7669071624 -30.33926304 0.0
193 1 -55.347783616 -29.77457168 0.0
194 1 -53.292752936 -39.46758408 0.0
195 1 -57.3732047664 -17.82326072 0.0
196 1 -57.3837504184 -26.31032208 0.0
197 1 47.3789824 -35.91205944 0.0
198 1 -39.44949248 -29.30652448 0.0
199 1 53.95685472 -32.47010336 0.0
200 1 -48.263031352 -39.34000912 0.0
201 1 -56.95591676 -37.57053392 0.0
202 1 52.71285296 -30.25966 0.0
203 1 -48.8120122 -28.80264424 0.0
204 1 -46.707048704 -38.13254072 0.0
205 1 53.94996824 -30.37182792 0.0
206 1 -47.179192776 -39.1047016 0.0
207 1 56.17990384 -30.22721184 0.0
208 1 -52.935858192 -45.5931664 0.0
209 1 50.21282728 -34.60526232 0.0
210 1 -52.30999388 -28.59429904 0.0
211 1 -44.90825344 -50.953952592 0.0
212 1 -55.921030552 -24.60095768 0.0
213 1 45.85473592 -16.58252712 0.0
214 1 51.55720824 -32.4008884 0.0
215 1 -49.214906296 -25.58782528 0.0
216 1 49.07714168 -34.7551308 0.0
217 1 45.25841344 -23.9982156 0.0
218 1 56.58784024 -32.40765816 0.0
219 1 -57.9686588496 -14.93677512 0.0
220 1 -58.1610647664 -39.6136008 0.0
221 1 54.6903232 -31.57007544 0.0
222 1 -41.68678144 -29.54229888 0.0
223 1 56.483726 -13.62519248 0.0
224 1 56.45839776 -21.30571864 0.0
225 1 -52.502115 -38.38582312 0.0
226 1 -51.493175648 -31.88311848 0.0
227 1 56.6640584 -36.3909616 0.0
228 1 49.3807304 -36.70598888 0.0
229 1 -58.2495699241 -35.56178272 0.0
230 1 57.36181056 -30.32478976 0.0
231 1 -53.447547 -46.944445512 0.0
232 1 -58.2790760398 -47.343814664 0.0
233 1 -56.579062896 -30.18565952 0.0
234 1 53.96455824 -28.28382384 0.0
235 1 -56.377113952 -36.5035964 0.0
236 1 44.96077744 -34.11293736 0.0
237 1 -45.16118568 -44.44802648 0.0
238 1 57.24030504 -18.14972656 0.0
239 1 -49.935804032 -28.72059008 0.0
240 1 -58.3162905777 -45.11356392 0.0
241 1 50.90707784 -29.15525536 0.0
242 1 54.59507968 -29.38519376 0.0
243 1 -57.104956528 -27.73220512 0.0
244 1 57.02308912 -29.1350628 0.0
245 1 -54.991040608 -42.83612328 0.0
246 1 40.93323712 -8.18312248 0.0
247 1 48.15493696 -40.97794088 0.0
248 1 -47.465892112 -26.84688392 0.0
249 1 53.06464704 -31.45347216 0.0
250 1 49.66879536 -29.20357744 0.0
251 1 48.20664392 -36.8257436 0.0
252 1 -57.8235968992 -32.18192168 0.0
253 1 -56.324239792 -34.5222744 0.0
254 1 -52.113215632 -24.4079028 0.0
255 1 -51.394243776 -38.33563352 0.0
256 1 -55.801462584 -44.94875528 0.0
257 1 -56.328581776 -28.943642 0.0
258 1 -42.46005144 -33.04016384 0.0
259 1 51.23786232 -30.2013 0.0
260 1 56.01766304 -35.44634664 0.0
261 1 -54.498633944 -33.303134 0.0
262 1 -57.6094413776 -36.51328416 0.0
263 1 58.1720808 -31.19563768 0.0
264 1 54.75405232 -33.30126648 0.0
265 1 -47.970157528 -43.63647232 0.0
266 1 56.65728864 -14.71454024 0.0
267 1 -53.562189384 -30.85796672 0.0
268 1 -57.444880184 -29.10611624 0.0
269 1 57.44129688 -23.69602752 0.0
270 1 -51.759273904 -29.60847912 0.0
271 1 -56.351155424 -26.88796936 0.0
272 1 53.8931256 -26.14271216 0.0
273 1 -51.208355504 -40.40251128 0.0
274 1 -54.935703656 -40.6138912 0.0
275 1 -49.719440168 -51.350695544 0.0
276 1 54.38533384 -9.87066024 0.0
277 1 -52.993424496 -19.4379652 0.0
278 1 -52.26756616 -31.03573128 0.0
279 1 -53.316738896 -35.27721936 0.0
280 1 -49.376189992 -47.591611224 0.0
281 1 -52.062500792 -35.25445896 0.0
282 1 57.59466696 -8.79963752 0.0
283 1 55.17949672 -17.7840428 0.0
284 1 -50.58563096 -47.56655144 0.0
285 1 -57.4013949808 -42.97595384 0.0
286 1 -54.23313096 -27.78963136 0.0
287 1 49.80430728 -31.41553816 0.0
288 1 -53.50958368 -28.72035664 0.0
289 1 -43.39159376 -30.97200216 0.0
290 1 -57.4120806968 -38.79621064 0.0
291 1 -52.017832048 -22.135948 0.0
292 1 56.54862232 -46.1960252 0.0
293 1 -51.48326612 -49.904091208 0.0
294 1 -51.434979056 -36.20059128 0.0
295 1 -46.34507664 -40.36142584 0.0
296 1 -45.28234104 -18.53385208 0.0
297 1 48.54781648 -33.51871584 0.0
298 1 -51.98965584 -39.53586528 0.0
299 1 -48.641962832 -44.53463272 0.0
300 1 -56.67666416 -41.77653912 0.0
301 1 -50.019970824 -30.89379976 0.0
302 1 -49.051533312 -41.51240176 0.0
303 1 47.2996128 -33.56085176 0.0
304 1 57.82495552 -48.327787608 0.0
305 1 -50.317513448 -32.00999312 0.0
306 1 48.58213216 -35.7589228 0.0
307 1 -45.15336544 -42.52424744 0.0
308 1 -56.380101984 -22.21251632 0.0
309 1 -52.113694184 -37.33837784 0.0
310 1 -46.64224576 -36.20094144 0.0
311 1 -57.8986035056 -44.02701744 0.0
312 1 -50.701172088 -33.09618944 0.0
313 1 -48.175339616 -45.68852664 0.0
314 1 -51.912842408 -32.97736848 0.0
315 1 52.1726728 -0.9868676 0.0
316 1 -36.89659264 5.12949384 0.0
317 1 57.31675664 8.57273384 0.0
318 1 -41.71479424 -3.4385712 0.0
319 1 -31.26858768 -9.19508488 0.0
320 1 -52.82291992 -18.2882732 0.0
321 1 -36.95098416 -15.06108192 0.0
322 1 -44.95284048 4.36451096 0.0
323 1 -43.5429796 -12.11658648 0.0
324 1 52.08524952 -7.6725892 0.0
325 1 -47.158124816 0.96153936 0.0
326 1 57.26645032 -5.98376752 0.0
327 1 -51.248262072 -20.84199008 0.0
328 1 -45.6264316 -0.80781912 0.0
329 1 49.57670328 11.65822704 0.0
330 1 -50.335359936 0.35121048 0.0
331 1 -50.337530928 -5.49529432 0.0
332 1 -49.1254054 3.37799352 0.0
333 1 -54.037893416 -19.76956672 0.0
334 1 -54.097420616 -7.1502672 0.0
335 1 -41.385994 -28.39214 0.0
336 1 -26.54014376 -15.25600432 0.0
337 1 -51.820225088 -15.21585264 0.0
338 1 -44.39176744 -25.32485512 0.0
339 1 -54.730906744 -3.7035256 0.0
340 1 -50.826459336 -24.35432832 0.0
341 1 -46.44078704 -18.1388716 0.0
342 1 -27.98058528 -11.73537896 0.0
343 1 -53.967569616 -2.64697616 0.0
344 1 54.22729496 7.40576728 0.0
345 1 -42.73621096 -2.84084808 0.0
346 1 -52.936628544 -15.51080408 0.0
347 1 -34.05084232 -18.97260256 0.0
348 1 54.11967912 5.25683536 0.0
349 1 42.16124824 -8.34396264 0.0
350 1 -54.964860312 -15.500416 0.0
351 1 -53.344121408 -0.16504208 0.0
352 1 50.37366744 5.00156872 0.0
353 1 -55.123447776 -18.08412992 0.0
354 1 -57.243829984 -19.0061012 0.0
355 1 -52.70713368 7.10789784 0.0
356 1 -46.42526328 -23.46842352 0.0
357 1 -46.920307816 -12.31734488 0.0
358 1 -48.835111088 -23.3276592 0.0
359 1 -56.976494496 -13.70199424 0.0
360 1 -44.9786356 -22.88423992 0.0
361 1 -49.895395568 -4.45730336 0.0
362 1 -30.70051144 -14.89942472 0.0
363 1 43.27137216 -3.03040136 0.0
364 1 -51.872422272 -19.76629856 0.0
365 1 56.7801948 -22.661188 0.0
366 1 -33.38390424 10.55685712 0.0
367 1 57.77569968 -3.86238152 0.0
368 1 -52.633880208 1.84896152 0.0
369 1 -54.9745364 7.47404848 0.0
370 1 -38.10919672 -15.06808512 0.0
371 1 -42.61774016 -21.84519848 0.0
372 1 -48.014651192 -25.58409024 0.0
373 1 -51.480791656 -4.92430008 0.0
374 1 -55.228028896 -6.71046624 0.0
375 1 -35.90213824 -15.660906 0.0
376 1 -41.77303752 -14.43277816 0.0
377 1 54.74436456 2.45380456 0.0
378 1 -51.597780112 2.46115792 0.0
379 1 56.71156344 -7.44113344 0.0
380 1 -45.60437152 -10.68361504 0.0
381 1 -48.793780536 -8.27182968 0.0
382 1 -52.248447424 -7.2261352 0.0
383 1 -51.334529824 -0.12068848 0.0
384 1 -49.246490728 1.01884888 0.0
385 1 -43.92780544 -16.77313088 0.0
386 1 -56.680772704 -0.19970792 0.0
387 1 -45.86967608 -6.65864256 0.0
388 1 -31.356828 -18.43393976 0.0
389 1 -37.47423992 -21.62097936 0.0
390 1 -53.42852164 -1.49214848 0.0
391 1 56.8198796 5.363284 0.0
392 1 -50.882893456 -16.8841316 0.0
393 1 51.8289324 3.14863872 0.0
394 1 -53.887359632 -16.13047056 0.0
395 1 -36.08363784 -23.56378376 0.0
396 1 56.65460408 -0.84937144 0.0
397 1 -42.48537968 5.51957208 0.0
398 1 53.28466424 -7.69266504 0.0
399 1 -47.23938528 -24.75712904 0.0
400 1 -56.04439192 -3.31157984 0.0
401 1 -50.722321752 -22.0332344 0.0
402 1 55.81235256 2.25059504 0.0
403 1 -48.970249504 4.51157816 0.0
404 1 -48.15277764 0.32086328 0.0
405 1 -39.04937632 -12.02577832 0.0
406 1 -46.93054416 -20.24169912 0.0
407 1 -46.719654464 7.03436424 0.0
408 1 -48.483935624 -18.98894336 0.0
409 1 -36.85469016 -12.43103016 0.0
410 1 49.90456976 1.64551856 0.0
411 1 -54.95574448 -11.46867376 0.0
412 1 -36.95343528 -13.80342392 0.0
413 1 -55.829008504 -13.34728216 0.0
414 1 -52.39782568 -2.71047184 0.0
415 1 -43.72844768 -26.52660424 0.0
416 1 41.71432736 -11.12586712 0.0
417 1 -48.9809644 -21.14627912 0.0
418 1 -50.764609408 -14.48646936 0.0
419 1 57.95474816 3.27142816 0.0
420 1 -54.505053544 -9.02268944 0.0
421 1 -48.122710568 -20.44152376 0.0
422 1 -52.608843768 -4.58079312 0.0
423 1 -42.39655576 -9.02082192 0.0
424 1 -35.43490808 9.48326656 0.0
425 1 54.11991256 3.39351728 0.0
426 1 -55.581550432 -0.8864884 0.0
427 1 -40.61435808 -16.42752296 0.0
428 1 -52.929520296 5.83985176 0.0
429 1 -45.92441776 -12.96397368 0.0
430 1 53.66213672 2.26471816 0.0
431 1 -35.5575808 3.37507552 0.0
432 1 -46.912289152 -4.95628136 0.0
433 1 -46.40950608 -28.92986904 0.0
434 1 -54.452529544 -0.52500656 0.0
435 1 -49.336948728 -6.05928536 0.0
436 1 -50.936187808 -11.6568264 0.0
437 1 -51.327468264 -3.7887312 0.0
438 1 -38.75477504 -19.30887288 0.0
439 1 -47.383581168 -19.1730108 0.0
440 1 55.21801432 -10.62315408 0.0
441 1 -42.81791496 -13.95586024 0.0
442 1 56.06656872 10.63365888 0.0
443 1 -43.56492296 -10.92172384 0.0
444 1 -52.040265632 3.8739368 0.0
445 1 -53.450721784 -5.49202616 0.0
446 1 -41.8517068 10.0647656 0.0
447 1 -56.441485032 1.01102864 0.0
448 1 57.81456744 1.03098776 0.0
449 1 57.59676792 -0.04983944 0.0
450 1 -57.61733982 5.14069896 0.0
451 1 -56.652398072 -7.7280312 0.0
452 1 49.11204096 -2.98604776 0.0
453 1 55.97529368 -5.35896536 0.0
454 1 -56.979622592 -15.45676272 0.0
455 1 56.02758424 -9.71507248 0.0
456 1 -37.96306328 -11.45746864 0.0
457 1 48.187852 7.57734568 0.0
458 1 -51.203756736 -13.023034 0.0
459 1 -52.546538632 -8.55312488 0.0
460 1 -41.28176304 -10.65560224 0.0
461 1 -51.062537208 4.66308072 0.0
462 1 -56.742074048 6.55172704 0.0
463 1 -50.00442372 -17.8534912 0.0
464 1 -51.294634928 -23.19039648 0.0
465 1 -52.802855752 -23.07122536 0.0
466 1 -52.23581832 0.682812 0.0
467 1 -56.683585656 3.33550744 0.0
468 1 -58.0768326112 -6.10282192 0.0
469 1 -58.361148582 -27.10553544 0.0
470 1 -50.085123928 -21.1152316 0.0
471 1 -54.521732832 -5.82105984 0.0
472 1 -48.13480276 -0.84540296 0.0
473 1 -46.6255548 -11.20418624 0.0
474 1 -34.616234 5.126926 0.0
475 1 -45.50866112 8.75738488 0.0
476 1 47.178224 -3.52681152 0.0
477 1 -41.48940792 -13.19893104 0.0
478 1 -55.376333328 1.37192688 0.0
479 1 -57.6973327048 0.25748432 0.0
480 1 -44.14887312 -17.85629248 0.0
481 1 -49.202545648 -7.239558 0.0
482 1 52.57804136 0.17052792 0.0
483 1 -43.76614824 -14.53560848 0.0
484 1 -58.1298900216 8.70544448 0.0
485 1 -53.150249488 -6.56911832 0.0
486 1 -52.922878928 -11.44427928 0.0
487 1 -47.944630864 -4.35937528 0.0
488 1 58.18877176 -29.46666432 0.0
489 1 -48.19345456 1.552376 0.0
490 1 -50.132325496 -0.76650024 0.0
491 1 -52.064333296 -17.46854864 0.0
492 1 -56.064210976 -14.72259392 0.0
493 1 -51.8473158 -14.08145096 0.0
494 1 48.50498024 -0.17601376 0.0
495 1 -49.226029712 -19.92457088 0.0
496 1 -56.147549056 -23.41601624 0.0
497 1 -40.56288456 -20.45669736 0.0
498 1 49.0241508 0.84341872 0.0
499 1 -48.70713928 -10.72411688 0.0
500 1 56.76186976 1.33621056 0.0
501 1 -45.46220656 -7.93205776 0.0
502 1 -54.843156368 -24.06567976 0.0
503 1 56.18714048 -2.25421336 0.0
504 1 -33.07588016 -19.6836608 0.0
505 1 48.74880832 1.92693048 0.0
506 1 -56.457884192 9.44895088 0.0
507 1 -41.57438008 -19.65343032 0.0
508 1 -42.4411428 3.31146312 0.0
509 1 -34.04208832 -17.82792952 0.0
510 1 -47.499355736 -28.83871072 0.0
511 1 50.41463616 0.58371672 0.0
512 1 -55.289610368 3.72231752 0.0
513 1 -48.009585544 -12.72796584 0.0
514 1 52.42151984 4.199002 0.0
515 1 58.09236104 7.56800808 0.0
516 1 47.46325424 6.50585608 0.0
517 1 -52.240568824 -5.74939376 0.0
518 1 -56.104747832 -1.966732 0.0
519 1 -47.030596544 -22.54668568 0.0
520 1 -57.7761046984 1.56194704 0.0
521 1 -43.87948336 -28.79529088 0.0
522 1 50.5169996 2.82357352 0.0
523 1 -51.926767104 -9.5576172 0.0
524 1 -50.442742336 -19.72883144 0.0
525 1 -49.604470968 -33.1584012 0.0
526 1 -44.77997816 -24.05342416 0.0
527 1 -32.2754144 2.78178776 0.0
528 1 -41.64312816 -1.03518968 0.0
529 1 -42.53650304 -17.58923712 0.0
530 1 -52.762155488 -13.28028488 0.0
531 1 55.58941736 3.35815112 0.0
532 1 -48.632940376 -24.59652232 0.0
533 1 -51.277465416 -6.27731832 0.0
534 1 -44.51222248 -11.55481312 0.0
535 1 -49.87550648 -8.30532832 0.0
536 1 -51.306598728 7.21201208 0.0
537 1 -52.712105952 -32.10220192 0.0
538 1 -46.17524904 -14.10491168 0.0
539 1 -46.899648376 -6.1785732 0.0
540 1 -56.664186792 2.15721904 0.0
541 1 -26.93850912 12.99116944 0.0
542 1 -42.14887592 7.82059016 0.0
543 1 -57.693575488 2.71070528 0.0
544 1 -45.35120584 -17.32486632 0.0
545 1 -54.031602208 -22.64227936 0.0
546 1 -47.645104 -8.14728944 0.0
547 1 49.2669284 7.34542304 0.0
548 1 -55.17990524 -4.7662612 0.0
549 1 -49.666320896 -18.91529304 0.0
550 1 -49.751129648 -11.3008304 0.0
551 1 -46.722595808 -30.02248496 0.0
552 1 -53.857771112 -12.18988664 0.0
553 1 -48.271143392 -22.36752048 0.0
554 1 -40.93440432 9.4712444 0.0
555 1 -44.3512656 -20.49474808 0.0
556 1 -52.70509108 -20.81911296 0.0
557 1 -40.27341896 -11.31682104 0.0
558 1 -43.60040584 6.2696148 0.0
559 1 -49.973656328 -3.29885736 0.0
560 1 -54.0337732 -14.76764784 0.0
561 1 -48.39934864 -15.36642144 0.0
562 1 -43.85975768 3.88117344 0.0
563 1 -47.174383912 -14.7376508 0.0
564 1 -43.66530216 -24.24192696 0.0
565 1 52.45723616 2.08531952 0.0
566 1 50.04206592 -8.36683976 0.0
567 1 -51.278737664 -1.43355504 0.0
568 1 54.96788336 -6.34443232 0.0
569 1 -41.34782656 -21.55538272 0.0
570 1 -56.962663176 -16.74103288 0.0
571 1 -49.774812136 -16.71593808 0.0
572 1 -47.649434312 -23.64968968 0.0
573 1 -42.37823072 -11.62787984 0.0
574 1 -43.70241912 -2.14776472 0.0
575 1 -48.944174256 -3.83763688 0.0
576 1 -48.071879008 -1.98459016 0.0
577 1 -44.161012 -31.7635972 0.0
578 1 -42.27563384 -10.18055184 0.0
579 1 -41.48030376 -15.55142264 0.0
580 1 -52.978904528 -16.78445272 0.0
581 1 -47.258970896 -13.60243208 0.0
582 1 -47.131349248 -0.29261704 0.0
583 1 -50.148736328 -23.1741724 0.0
584 1 -57.4657415496 -4.41913592 0.0
585 1 -55.873957376 -10.7971836 0.0
586 1 -36.71509304 6.45321536 0.0
587 1 -56.884951 -6.57763888 0.0
588 1 53.18043328 1.19486264 0.0
589 1 55.18264816 -0.0542748 0.0
590 1 -44.97081536 -13.8424084 0.0
591 1 -51.954009552 -16.33624792 0.0
592 1 53.702872 6.38365024 0.0
593 1 -30.27109856 -13.86680288 0.0
594 1 -56.356116024 -4.4487828 0.0
595 1 -51.206301232 -7.8254924 0.0
596 1 -51.432597968 -33.98606272 0.0
597 1 54.86446944 8.52651272 0.0
598 1 -42.13662032 -24.5252064 0.0
599 1 -54.049577088 -17.3848604 0.0
600 1 -55.236199296 -19.2243676 0.0
601 1 -58.1509404736 -2.02194056 0.0
602 1 56.35918576 4.22082864 0.0
603 1 -46.048958 2.86279144 0.0
604 1 -56.95568332 -5.40577008 0.0
605 1 -32.13780152 -2.21207744 0.0
606 1 -57.113710528 -20.40942576 0.0
607 1 -44.49238008 -7.39024352 0.0
608 1 -55.025869856 -16.66784944 0.0
609 1 -52.001572952 -12.13199352 0.0
610 1 -48.242115128 -14.13981096 0.0
611 1 -57.10187512 -2.477382 0.0
612 1 51.16818048 -10.4651152 0.0
613 1 -50.68139972 -15.61281736 0.0
614 1 -44.78301288 -16.07666264 0.0
615 1 -44.89716504 3.26150696 0.0
616 1 -41.981266 8.93795072 0.0
617 1 -49.112146008 -9.3533572 0.0
618 1 -51.306096832 -2.67277128 0.0
619 1 -46.08128944 1.62334176 0.0
620 1 -30.08026136 -18.02763744 0.0
621 1 -48.923117968 6.13678744 0.0
622 1 -37.36977552 17.12539184 0.0
623 1 -42.62182536 -15.15889328 0.0
624 1 -46.828274096 -7.3481076 0.0
625 1 -45.67965592 -11.81078008 0.0
626 1 -48.921448872 -12.05752616 0.0
627 1 -50.25636384 -6.90060312 0.0
628 1 -41.72821704 1.2039668 0.0
629 1 -50.084680392 4.05531968 0.0
630 1 -47.258492344 -17.05711064 0.0
631 1 -36.68988152 -10.05064248 0.0
632 1 -53.875769336 -20.86346656 0.0
633 1 -29.12677568 -23.54755968 0.0
634 1 48.96999272 -1.22229184 0.0
635 1 -54.751122648 -10.11834008 0.0
636 1 -47.42076816 -15.93309704 0.0
637 1 -49.087739856 -13.22764416 0.0
638 1 -57.7100925352 19.23160424 0.0
639 1 57.4927704 12.7744204 0.0
640 1 -52.198596312 26.48085 0.0
641 1 -47.54344088 9.85782104 0.0
642 1 -39.61745256 12.25314888 0.0
643 1 -33.35869272 11.76234128 0.0
644 1 58.0576952 25.50121904 0.0
645 1 -53.770662976 26.6681856 0.0
646 1 -53.910213408 16.33811544 0.0
647 1 -40.59358192 14.13876048 0.0
648 1 -42.8490792 33.85907136 0.0
649 1 -50.397198192 18.30216288 0.0
650 1 -48.853377768 8.4172628 0.0
651 1 -48.24714576 18.21789104 0.0
652 1 -47.275673528 15.24351528 0.0
653 1 57.88156472 11.63441616 0.0
654 1 -56.85454544 24.5584716 0.0
655 1 -53.793201608 25.53214984 0.0
656 1 -57.4743017944 7.41393768 0.0
657 1 -47.445150968 20.3629712 0.0
658 1 -42.73107528 27.53168016 0.0
659 1 -49.969314344 22.7452264 0.0
660 1 51.8242636 19.07076408 0.0
661 1 -46.67959616 8.17203408 0.0
662 1 -46.728233384 5.79258016 0.0
663 1 -56.375654952 25.54930768 0.0
664 1 -48.389147312 15.25787184 0.0
665 1 -52.010630424 30.7720608 0.0
666 1 -39.58196968 13.37132648 0.0
667 1 -51.998783344 11.48629848 0.0
668 1 -52.77343064 16.44281328 0.0
669 1 -56.682044952 34.16359384 0.0
670 1 -37.33616016 10.72645128 0.0
671 1 52.04451424 23.21724208 0.0
672 1 54.9266812 18.06930648 0.0
673 1 -47.39917496 10.96537712 0.0
674 1 -58.0502566344 6.40127496 0.0
675 1 -51.024930024 3.42304744 0.0
676 1 -55.657138304 15.1140728 0.0
677 1 -47.832988184 35.88696464 0.0
678 1 57.93735688 23.527834 0.0
679 1 -51.90433352 24.33565312 0.0
680 1 -44.44837664 9.36934784 0.0
681 1 -55.179274952 28.21776032 0.0
682 1 50.6074576 26.16360504 0.0
683 1 56.79863656 23.28003744 0.0
684 1 -56.108097696 23.6801536 0.0
685 1 51.61323384 25.37912992 0.0
686 1 -31.57532784 16.79437392 0.0
687 1 -47.642804616 8.64264912 0.0
688 1 -57.5442660968 23.5984496 0.0
689 1 55.01982376 34.03566872 0.0
690 1 -40.42293728 -0.33055104 0.0
691 1 -57.7560977232 29.90331384 0.0
692 1 -37.61453736 1.97408536 0.0
693 1 55.3754696 7.34157128 0.0
694 1 -44.10977192 14.34150312 0.0
695 1 -52.97506444 14.30380256 0.0
696 1 -44.68123304 17.84555424 0.0
697 1 -42.48759736 17.16122488 0.0
698 1 -49.583519728 34.67295992 0.0
699 1 52.62589656 25.9211776 0.0
700 1 -36.47359936 13.73689352 0.0
701 1 -53.843134424 21.49503848 0.0
702 1 52.78125088 27.04414072 0.0
703 1 -54.498774008 22.4324168 0.0
704 1 -48.077504912 29.17859936 0.0
705 1 -50.656036464 12.1715616 0.0
706 1 -53.82268508 6.79415448 0.0
707 1 -50.13497504 2.74747208 0.0
708 1 -42.69570912 29.7034892 0.0
709 1 -35.51812944 8.3186344 0.0
710 1 -55.687952384 16.23365104 0.0
711 1 52.87987928 7.0942416 0.0
712 1 -48.795636384 33.74445232 0.0
713 1 -57.8841629072 17.01625864 0.0
714 1 -49.085557192 2.26506832 0.0
715 1 -55.521591368 2.6139444 0.0
716 1 -38.92308528 9.11384776 0.0
717 1 -36.52659024 9.73771616 0.0
718 1 -47.492679352 14.1429624 0.0
719 1 49.61510416 9.50147488 0.0
720 1 58.1288944 35.13762224 0.0
721 1 -51.577249064 16.4907852 0.0
722 1 -53.437065544 1.0207164 0.0
723 1 -54.48828088 0.71561032 0.0
724 1 -56.133951176 33.17322464 0.0
725 1 55.53794384 37.18920968 0.0
726 1 -49.482650304 13.26125952 0.0
727 1 56.2497024 12.63073808 0.0
728 1 57.1630364 10.59479112 0.0
729 1 -39.38261192 0.48193688 0.0
730 1 55.06359376 22.2421632 0.0
731 1 -48.52260496 20.99255888 0.0
732 1 -39.43081728 22.08587512 0.0
733 1 -43.70708792 2.72167696 0.0
734 1 -31.40865168 6.81738176 0.0
735 1 -40.06577408 25.59447832 0.0
736 1 -38.95786784 6.11227624 0.0
737 1 -57.9796188576 22.48155592 0.0
738 1 57.38001888 6.6746332 0.0
739 1 -50.977354952 10.80955592 0.0
740 1 -50.365812184 19.48547024 0.0
741 1 -48.17577148 16.71908952 0.0
742 1 -43.45217144 17.91208464 0.0
743 1 -46.49938048 11.73747992 0.0
744 1 -52.901904344 27.38531328 0.0
745 1 -57.501827872 9.8441648 0.0
746 1 -54.404382544 24.53127584 0.0
747 1 54.55948008 15.8138092 0.0
748 1 -42.49693496 6.75178512 0.0
749 1 -47.623078936 21.71038688 0.0
750 1 -57.063567616 28.74731896 0.0
751 1 -37.636364 36.11036672 0.0
752 1 -53.18673616 4.47726248 0.0
753 1 -36.89425824 7.57874632 0.0
754 1 -53.15627224 -3.5535404 0.0
755 1 56.94745456 34.87932088 0.0
756 1 -42.61458872 4.42975744 0.0
757 1 -44.99626032 13.66102552 0.0
758 1 -47.98341692 -6.78166544 0.0
759 1 -49.369210136 20.28430192 0.0
760 1 -33.28574272 9.33328136 0.0
761 1 -55.51179856 24.74323936 0.0
762 1 -51.537109056 32.9914916 0.0
763 1 -51.373642696 28.88423152 0.0
764 1 -46.13813208 15.6264736 0.0
765 1 -48.958530816 9.71157088 0.0
766 1 -39.74677832 9.8797644 0.0
767 1 -42.70154512 20.45436296 0.0
768 1 -58.3429928455 18.04526216 0.0
769 1 -52.733080536 21.54172648 0.0
770 1 -45.43944616 12.32901688 0.0
771 1 -52.67906252 28.61670928 0.0
772 1 -47.129236616 35.05463432 0.0
773 1 -35.51602848 14.41305248 0.0
774 1 53.73100152 26.4090672 0.0
775 1 -55.669790752 8.49219704 0.0
776 1 -52.237242304 17.45629304 0.0
777 1 -54.139918368 19.27607456 0.0
778 1 -41.8843884 11.2389688 0.0
779 1 -43.12430496 19.43901568 0.0
780 1 -27.42184664 16.7189728 0.0
781 1 -44.41266032 8.20564944 0.0
782 1 -44.65228648 5.41954304 0.0
783 1 -47.361451056 33.73418096 0.0
784 1 -45.31408888 11.1520124 0.0
785 1 -52.795689144 13.10228688 0.0
786 1 -44.78382992 21.06434168 0.0
787 1 -53.881231832 23.53798864 0.0
788 1 -48.52120432 10.8888088 0.0
789 1 -51.861695704 6.2480216 0.0
790 1 -48.982061568 7.31706008 0.0
791 1 -55.049832472 21.435628 0.0
792 1 -26.76903168 -9.17454216 0.0
793 1 -34.60000992 7.67398984 0.0
794 1 -37.65060384 14.56583896 0.0
795 1 -43.1385448 10.05344376 0.0
796 1 -53.92819996 9.79502568 0.0
797 1 -35.05463432 -1.9398864 0.0
798 1 -26.88225008 5.5021808 0.0
799 1 -37.44167504 11.90392264 0.0
800 1 -55.610648728 22.48342344 0.0
801 1 57.60120328 29.87728528 0.0
802 1 -41.54169848 16.58859656 0.0
803 1 -52.735123136 18.44047608 0.0
804 1 55.52265352 23.3247412 0.0
805 1 -39.25970576 28.82353712 0.0
806 1 -38.59731976 13.97885408 0.0
807 1 -53.76689292 3.31904992 0.0
808 1 -44.28788664 20.04642656 0.0
809 1 -38.08701992 -10.36345208 0.0
810 1 -52.118584752 5.09681224 0.0
811 1 -40.92389952 10.6717096 0.0
812 1 -36.79259512 8.67007832 0.0
813 1 -55.357751504 20.23177792 0.0
814 1 -48.061934464 5.21458272 0.0
815 1 -50.836555616 5.89155872 0.0
816 1 -40.318006 6.3402304 0.0
817 1 -58.201966956 28.60935592 0.0
818 1 -40.42340416 4.10515912 0.0
819 1 -52.581589648 23.44613 0.0
820 1 -47.611500312 -10.43488472 0.0
821 1 -41.26425504 6.9483416 0.0
822 1 -46.900523776 16.53140376 0.0
823 1 -49.418290896 16.5923316 0.0
824 1 -48.714282544 22.2369108 0.0
825 1 -51.05525388 29.93961376 0.0
826 1 57.10911176 28.65616064 0.0
827 1 -44.47802352 24.50104536 0.0
828 1 -43.55371784 5.0370516 0.0
829 1 55.49020536 25.42208288 0.0
830 1 51.82519736 21.14242736 0.0
831 1 -50.996707128 9.64060512 0.0
832 1 -49.545690776 12.08787336 0.0
833 1 -43.82707608 29.56622648 0.0
834 1 55.25197984 16.88074672 0.0
835 1 -47.76777672 6.30182952 0.0
836 1 -39.18010272 3.68461696 0.0
837 1 54.35697088 23.28634032 0.0
838 1 56.43552064 16.79273984 0.0
839 1 -41.90528128 12.34594128 0.0
840 1 -53.098916032 31.55887032 0.0
841 1 -52.229853928 8.07854136 0.0
842 1 -51.55925084 18.35375312 0.0
843 1 -38.56884008 11.62251072 0.0
844 1 -49.387861992 17.7525284 0.0
845 1 -35.43946016 11.93648752 0.0
846 1 49.8767904 20.13875208 0.0
847 1 -51.430602056 25.53028232 0.0
848 1 55.80196448 21.15398264 0.0
849 1 -53.174608952 24.36483312 0.0