ITEM: TIMESTEP
0
ITEM: NUMBER OF ATOMS
10490
ITEM: BOX BOUNDS pp pp pp
-5.8359999999999999e+01 5.8359999999999999e+01
-5.8359999999999999e+01 5.8359999999999999e+01
-5.0000000000000000e-01 5.0000000000000000e-01
ITEM: ATOMS id type xs ys zs c_002[1] c_002[2]
1 1 0.102333 0.119516 0.5 -0.158165 -0.0266324
2 1 0.0439917 0.102853 0.5 -0.732131 0.56618
3 1 0.0820964 0.00958466 0.5 -0.888537 0.339237
4 1 0.049051 0.166921 0.5 -0.91068 0.386505
5 1 0.0806416 0.122276 0.5 -0.09366 0.342999
6 1 0.122208 0.140682 0.5 -0.459357 0.321845
7 1 0.0633928 0.23289 0.5 -0.936012 0.32738
8 1 0.0918421 0.13956 0.5 -0.0527438 0.0622582
9 1 0.0969809 0.0778984 0.5 -0.799199 -0.331376
10 1 0.00660524 0.0843526 0.5 -0.710293 0.481949
11 1 0.985085 0.0445341 0.5 -0.976249 0.103188
12 1 0.033528 0.210605 0.5 -0.608635 -0.21808
13 1 0.0604836 0.080217 0.5 -0.932043 0.123261
14 1 0.113456 0.0535749 0.5 -0.533202 0.364655
15 1 0.0749774 0.130501 0.5 0.296408 -0.0383716
16 1 0.0534804 0.218398 0.5 -0.856359 0.444654
17 1 0.997575 0.0790066 0.5 -0.626725 0.436151
18 1 0.0530138 0.997538 0.5 -0.611673 0.719751
19 1 0.0596718 0.0908207 0.5 -0.790924 0.257652
20 1 0.0203676 0.0216011 0.5 -0.608937 0.617307
21 1 0.0942017 0.15943 0.5 -0.64251 0.0753388
22 1 0.0570371 0.161019 0.5 -0.864944 0.47613
23 1 0.0953143 0.0564708 0.5 -0.665316 0.6042
24 1 0.0539771 0.108434 0.5 -0.47108 0.654603
25 1 0.112493 0.0437487 0.5 -0.790206 0.444638
26 1 0.0784595 0.189827 0.5 -0.817902 0.412578
27 1 0.0340062 0.0764884 0.5 -0.834636 0.355089
28 1 0.0923214 0.236638 0.5 -0.962697 0.167199
29 1 0.0908362 0.216164 0.5 -0.880374 0.213265
30 1 0.0569462 0.036289 0.5 -0.756593 0.255171
31 1 0.0351605 0.108572 0.5 -0.842879 0.426527
32 1 0.083515 0.152009 0.5 -0.655834 0.182757
33 1 0.0662648 0.16513 0.5 -0.740484 0.509818
34 1 0.0324916 0.185964 0.5 -0.646686 0.403611
35 1 0.104204 0.0841894 0.5 -0.700105 -0.138127
36 1 0.0867058 0.183156 0.5 -0.685786 0.292172
37 1 0.0665381 0.043028 0.5 -0.86749 0.310764
38 1 0.0640127 0.143627 0.5 -0.295396 0.247988
39 1 0.00108056 0.250317 0.5 -0.730421 0.256059
40 1 0.0694686 0.0840206 0.5 -0.78858 0.297581
41 1 0.116593 0.0790219 0.5 -0.400396 0.25495
42 1 0.0823653 0.211122 0.5 -0.567819 0.25342
43 1 0.111217 0.225833 0.5 -0.764332 0.0967417
44 1 0.0282941 0.0137853 0.5 -0.379876 0.773495
45 1 0.0567148 0.150771 0.5 -0.647742 0.423891
46 1 0.00165509 0.141917 0.5 -0.795348 0.474791
47 1 0.0352757 0.198599 0.5 -0.698852 0.281627
48 1 0.112202 0.144912 0.5 -0.207065 0.242087
49 1 0.0315458 0.0538221 0.5 -0.438678 0.399122
50 1 0.016442 0.0684248 0.5 -0.597391 0.0970733
51 1 0.999924 0.0996074 0.5 -0.554687 0.252568
52 1 0.105674 0.175627 0.5 -0.666409 -0.0758521
53 1 0.0914636 0.0140288 0.5 -0.889668 0.327394
54 1 0.105824 0.0743904 0.5 -0.67585 -0.214377
55 1 0.108675 0.136256 0.5 0.0370621 0.34752
56 1 0.0809001 0.221092 0.5 -0.755036 0.212409
57 1 0.0487352 0.144777 0.5 -0.486793 0.481063
58 1 0.0243968 0.0615422 0.5 -0.460553 0.654407
59 1 0.0123841 0.0371099 0.5 -0.729924 0.13613
60 1 0.0243029 0.193324 0.5 -0.619832 0.61654
61 1 0.077679 0.180132 0.5 -0.571163 0.700387
62 1 0.0317281 0.175616 0.5 -0.654142 0.154462
63 1 0.0541374 0.248027 0.5 -0.542915 0.405208
64 1 0.0557849 0.118954 0.5 -0.722014 0.284211
65 1 0.0788417 0.0874179 0.5 -0.698273 -0.0700447
66 1 0.0861178 0.271816 0.5 -0.814434 0.403523
67 1 0.00886561 0.0945671 0.5 -0.566981 0.489685
68 1 0.0349688 0.229903 0.5 -0.873453 0.263278
69 1 0.0825044 0.0309713 0.5 -0.820672 0.0408622
70 1 0.037097 0.131533 0.5 -0.452537 0.180923
71 1 0.0500625 0.265305 0.5 -0.322367 0.318859
72 1 0.00346086 0.1512 0.5 -0.631051 0.38433
73 1 0.0993629 0.13392 0.5 -0.0715114 0.60537
74 1 0.988863 0.0966596 0.5 -0.601664 0.651391
75 1 0.0702689 0.217278 0.5 -0.782245 0.264071
76 1 0.0940524 0.14916 0.5 -0.61798 0.109575
77 1 0.0204914 0.0321852 0.5 -0.688249 0.480114
78 1 0.00810237 0.116049 0.5 -0.873676 0.248379
79 1 0.0202171 0.141209 0.5 -0.575045 0.685174
80 1 0.105109 0.0939741 0.5 -0.758725 0.535964
81 1 0.0346129 0.250035 0.5 -0.6623 -0.0462171
82 1 0.0445222 0.214785 0.5 -0.754298 0.227352
83 1 0.0836932 0.252071 0.5 -0.732144 0.524905
84 1 0.101944 0.14339 0.5 -0.190433 0.829255
85 1 0.0121957 0.14692 0.5 -0.772146 0.348809
86 1 0.131244 0.0553319 0.5 -0.902245 0.0877952
87 1 0.989212 0.106899 0.5 -0.46631 0.74949
88 1 0.0564964 0.049674 0.5 -0.316279 0.35371
89 1 0.0990416 0.209406 0.5 -0.885615 0.088029
90 1 0.00800255 0.20472 0.5 -0.540676 0.268086
91 1 0.0603315 0.0701101 0.5 -0.878889 0.396958
92 1 0.996095 0.157612 0.5 -0.597736 0.371966
93 1 0.091444 0.0269267 0.5 -0.534095 0.13056
94 1 0.990874 0.126548 0.5 -0.675919 0.345927
95 1 0.00837585 0.226027 0.5 -0.697897 0.667165
96 1 0.0318035 0.166248 0.5 -0.827982 0.147219
97 1 0.00494628 0.184469 0.5 -0.757827 0.429519
98 1 0.0460163 0.0124284 0.5 -0.921839 0.356992
99 1 0.132462 0.0649323 0.5 -0.849515 0.0739578
100 1 0.0915839 0.226315 0.5 -0.891734 0.397432
101 1 0.0405576 0.162516 0.5 -0.867183 0.0338442
102 1 0.00723486 0.995348 0.5 -0.843919 0.227394
103 1 0.12189 0.0488394 0.5 -0.910454 -0.0307602
104 1 0.0262355 0.23397 0.5 -0.8444 0.221922
105 1 0.0122609 0.157601 0.5 -0.711963 0.412341
106 1 0.0166032 0.110471 0.5 -0.86099 0.181912
107 1 0.0628422 0.111801 0.5 -0.537918 0.665828
108 1 0.0846703 0.16185 0.5 -0.711337 0.113814
109 1 0.0630225 0.00100562 0.5 -0.31274 0.899253
110 1 0.0121675 0.178515 0.5 -0.525794 0.369212
111 1 0.0519161 0.986627 0.5 -0.750222 0.582971
112 1 0.0396203 0.141981 0.5 -0.304745 0.271234
113 1 0.0300288 0.154668 0.5 -0.587438 0.119051
114 1 0.0851608 0.262182 0.5 -0.761482 0.630761
115 1 0.00965984 0.126893 0.5 -0.69888 0.524584
116 1 0.0578265 0.171543 0.5 -0.832716 0.525153
117 1 0.986961 0.185777 0.5 -0.42754 0.718731
118 1 0.0789821 0.110984 0.5 -0.816238 0.261307
119 1 0.0352951 0.0990299 0.5 -0.735559 0.357801
120 1 0.0743321 0.147866 0.5 0 0
121 1 0.98239 0.113536 0.5 -0.50335 0.43965
122 1 0.0511786 0.285404 0.5 -0.709349 0.430251
123 1 0.0218229 0.161761 0.5 -0.734615 0.63864
124 1 0.0884612 0.0725466 0.5 -0.983602 0.0719396
125 1 0.98499 0.0548971 0.5 -0.908577 0.226835
126 1 0.0264869 0.00428238 0.5 -0.339218 0.813978
127 1 0.0101145 0.0277841 0.5 -0.805056 0.212726
128 1 0.0492028 0.0427272 0.5 -0.417359 0.503625
129 1 0.0866633 0.0927914 0.5 -0.518517 -0.25749
130 1 0.000468033 0.271926 0.5 -0.174279 0.226548
131 1 0.104083 0.185618 0.5 -0.447618 -0.166324
132 1 0.0300848 0.0439923 0.5 -0.599854 0.430188
133 1 0.0569215 0.0262002 0.5 -0.725006 0.542815
134 1 0.0499632 0.0564079 0.5 -0.396997 0.177242
135 1 0.0302381 0.143991 0.5 -0.373695 0.120024
136 1 0.00826106 0.105576 0.5 -0.917043 -0.0865166
137 1 0.0103194 0.0179828 0.5 -0.792718 0.339593
138 1 0.0674596 0.265258 0.5 -0.686898 0.435949
139 1 0.0678117 0.0530456 0.5 -0.678367 0.672462
140 1 0.977797 0.182154 0.5 -0.39496 0.865163
141 1 0.110553 0.236964 0.5 -0.847289 0.0455461
142 1 0.0658716 0.0108189 0.5 -0.514781 0.423256
143 1 0.0192824 0.251163 0.5 -0.729808 -0.0761586
144 1 0.0760085 0.0474095 0.5 -0.822872 0.543837
145 1 0.0737941 0.0253636 0.5 -0.966782 0.0176823
146 1 0.0856515 0.130739 0.5 0.386993 -0.393424
147 1 0.0410685 0.181901 0.5 -0.910403 -0.0452887
148 1 0.0907532 0.204401 0.5 -0.472755 0.474379
149 1 0.962486 0.235566 0.5 -0.886107 0.364059
150 1 0.0768904 0.056962 0.5 -0.617051 0.512389
151 1 0.101379 0.0292894 0.5 -0.630265 0.525279
152 1 0.0557446 0.138404 0.5 -0.750484 0.404614
153 1 0.05477 0.238428 0.5 -0.894879 0.262291
154 1 0.0743883 0.0152346 0.5 -0.87364 0.281607
155 1 0.0970532 0.067257 0.5 -0.835413 0.13726
156 1 0.0641968 0.123529 0.5 -0.854407 0.294378
157 1 0.0374879 0.0184564 0.5 -0.777327 0.589017
158 1 0.0178935 0.261099 0.5 -0.5186 0.078973
159 1 0.985636 0.154031 0.5 -0.678338 0.684974
160 1 0.0419326 0.0703336 0.5 -0.76005 0.444569
161 1 0.0141817 0.0783448 0.5 -0.732938 0.0670573
162 1 0.0467938 0.0227353 0.5 -0.818189 0.485567
163 1 0.0384648 0.0283912 0.5 -0.796232 0.519803
164 1 0.017295 0.229882 0.5 -0.739839 0.654957
165 1 0.0418629 0.0495818 0.5 -0.431129 -0.0205072
166 1 0.0431129 0.0817467 0.5 -0.887591 0.305408
167 1 0.0962412 0.169098 0.5 -0.695863 -0.165417
168 1 0.00303258 0.0543127 0.5 -0.553285 0.581405
169 1 0.134083 0.0888497 0.5 -0.450677 0.345836
170 1 0.989212 0.986468 0.5 -0.744892 0.597533
171 1 0.101251 0.998704 0.5 -0.724465 0.247238
172 1 0.0526925 0.18817 0.5 -0.477056 0.334331
173 1 0.0518494 0.0855237 0.5 -0.922659 0.0316806
174 1 0.0510959 0.0658168 0.5 -0.855184 0.323854
175 1 0.026411 0.203537 0.5 -0.542458 0.013111
176 1 0.0523838 0.208664 0.5 -0.867267 0.247837
177 1 0.0640658 0.243175 0.5 -0.925646 0.103662
178 1 0.04314 0.224536 0.5 -0.769155 0.292461
179 1 0.0713075 0.207301 0.5 -0.787209 0.173304
180 1 0.103496 0.153494 0.5 -0.666213 0.632573
181 1 0.0794742 0.0678485 0.5 -0.6333 0.529319
182 1 0.0456745 0.113779 0.5 -0.88842 0.316013
183 1 0.0331727 0.0665282 0.5 -0.613526 0.586209
184 1 0.0919759 0.0364202 0.5 -0.635241 0.560967
185 1 0.0278107 0.133713 0.5 -0.429269 0.250489
186 1 0.997633 0.212132 0.5 -0.86398 0.112878
187 1 0.0549316 0.0170274 0.5 -0.765069 0.388586
188 1 0.111826 0.0343774 0.5 -0.802148 0.427269
189 1 0.0959666 0.0901 0.5 -0.628343 -0.134223
190 1 0.00997809 0.246134 0.5 -0.924626 0.0675878
191 1 0.0161739 0.20974 0.5 -0.958467 0.062738
192 1 0.0362997 0.260426 0.5 -0.228962 0.634672
193 1 0.98479 0.143509 0.5 -0.616564 0.720425
194 1 0.0966562 0.100317 0.5 -0.643242 0.376279
195 1 0.00721778 0.215657 0.5 -0.826 0.364707
196 1 0.0449228 0.245422 0.5 -0.773667 0.268827
197 1 0.986296 0.0648696 0.5 -0.857771 0.437088
198 1 0.0792781 0.201012 0.5 -0.547659 0.584198
199 1 0.0250934 0.0928277 0.5 -0.870548 0.271488
200 1 0.140233 0.0706803 0.5 -0.721877 0.0326703
201 1 0.0838936 0.0417624 0.5 -0.719853 0.64195
202 1 0.0701553 0.105429 0.5 -0.840361 0.295273
203 1 0.0618012 0.192065 0.5 -0.550182 0.774539
204 1 0.0338744 0.0882713 0.5 -0.837173 0.320732
205 1 0.0609393 0.100369 0.5 -0.580609 0.595546
206 1 0.0848368 0.172785 0.5 -0.608864 0.21222
207 1 0.0226067 0.172815 0.5 -0.7952 0.429416
208 1 0.0804155 0.0774949 0.5 -0.767034 0.0549052
209 1 0.0511734 0.0963224 0.5 -0.679292 0.438525
210 1 0.0734428 0.238508 0.5 -0.688756 0.478284
211 1 0.0688892 0.0649206 0.5 -0.546267 0.593783
212 1 0.988718 0.20737 0.5 -0.915361 0.189746
213 1 0.985371 0.175446 0.5 -0.626448 0.500715
214 1 0.0168684 0.120665 0.5 -0.6586 0.578333
215 1 0.000437557 0.240934 0.5 -0.801626 0.358699
216 1 0.0152787 0.087643 0.5 -0.553121 0.616789
217 1 0.0398176 0.151867 0.5 -0.696825 -0.110784
218 1 0.0484005 0.157085 0.5 -0.891219 0.298653
219 1 0.988721 0.227404 0.5 -0.72355 0.527911
220 1 0.0520779 0.0757789 0.5 -0.933016 0.275175
221 1 0.00102884 0.131805 0.5 -0.904221 0.237038
222 1 0.0616999 0.212907 0.5 -0.859333 0.166087
223 1 0.0247108 0.213815 0.5 -0.773419 -0.194881
224 1 0.00345602 0.174424 0.5 -0.800848 -0.0857689
225 1 0.0834002 0.0198054 0.5 -0.791126 0.0289418
226 1 0.119654 0.221515 0.5 -0.710194 0.468155
227 1 0.0701649 0.0944311 0.5 -0.804923 0.347768
228 1 0.0707674 0.0742124 0.5 -0.646711 0.425586
229 1 0.114273 0.0675206 0.5 -0.671726 0.376074
230 1 0.0527544 0.198389 0.5 -0.866999 0.211205
231 1 0.0943882 0.0461766 0.5 -0.66748 0.650476
232 1 0.123365 0.0608181 0.5 -0.829559 0.237198
233 1 0.995508 0.168484 0.5 -0.866703 -0.151799
234 1 0.0462551 0.135138 0.5 -0.438563 0.807147
235 1 0.0426515 0.0914993 0.5 -0.686373 0.430502
236 1 0.00476179 0.164355 0.5 -0.683302 0.0242645
237 1 0.0822115 0.140728 0.5 0.0172311 -0.174666
238 1 0.0095759 0.136469 0.5 -0.776277 0.436254
239 1 0.0650546 0.132956 0.5 -0.409514 -0.128912
240 1 0.045211 0.124448 0.5 -0.808521 0.273789
241 1 0.0137195 0.168192 0.5 -0.775658 0.295263
242 1 0.973774 0.117539 0.5 -0.307098 -0.0552869
243 1 0.0692103 0.185681 0.5 -0.66503 0.66751
244 1 0.0424538 0.192372 0.5 -0.717608 0.238141
245 1 0.0787269 0.0999802 0.5 -0.866765 0.169845
246 1 0.0762862 0.258528 0.5 -0.654903 0.7119
247 1 0.0294127 0.0250381 0.5 -0.629893 0.764363
248 1 0.0251461 0.224339 0.5 -0.905847 0.208191
249 1 0.986476 0.164334 0.5 -0.835234 0.327764
250 1 0.0369715 0.119638 0.5 -0.887553 0.136388
251 1 0.024657 0.0731752 0.5 -0.804759 0.127144
252 1 0.994002 0.147913 0.5 -0.630295 0.727328
253 1 0.0189087 0.129966 0.5 -0.642791 0.701675
254 1 0.0443077 0.203354 0.5 -0.893228 0.215487
255 1 0.071722 0.117363 0.5 -0.621377 0.560052
256 1 0.0142564 0.057884 0.5 -0.313959 0.815868
257 1 0.0945801 0.125607 0.5 0.00598619 0.074295
258 1 0.116178 0.180029 0.5 -0.330591 0.467308
259 1 0.020795 0.151023 0.5 -0.794378 0.579137
260 1 0.995462 0.0693323 0.5 -0.632856 0.598221
261 1 0.122793 0.0716247 0.5 -0.465348 0.526001
262 1 0.10649 0.10366 0.5 -0.424497 0.610643
263 1 0.996594 0.0897321 0.5 -0.501296 0.4595
264 1 0.987916 0.0762723 0.5 -0.562346 0.354984
265 1 0.0469728 0.0331379 0.5 -0.670687 0.556594
266 1 0.997008 0.22208 0.5 -0.639857 0.267622
267 1 0.0950954 0.178786 0.5 -0.770172 -0.428103
268 1 0.0441402 0.234058 0.5 -0.830927 0.458702
269 1 0.0626748 0.223219 0.5 -0.8786 0.434573
270 1 0.075699 0.158077 0.5 -0.762855 0.578271
271 1 0.0712568 0.227477 0.5 -0.746661 0.586534
272 1 0.9765 0.150747 0.5 -0.769427 0.520319
273 1 0.120863 0.0287671 0.5 -0.814595 0.477074
274 1 0.126118 0.0829416 0.5 -0.425004 0.188168
275 1 0.0744718 0.0376312 0.5 -0.716025 0.362564
276 1 0.0336899 0.22032 0.5 -0.858184 0.00540784
277 1 0.0153781 0.188125 0.5 -0.6267 0.509057
278 1 0.0588652 0.180794 0.5 -0.448695 0.68661
279 1 0.0669625 0.1755 0.5 -0.688572 0.640936
280 1 0.0657084 0.0303769 0.5 -0.858594 0.167774
281 1 0.0552391 0.12856 0.5 -0.86623 0.300423
282 1 0.995487 0.190615 0.5 -0.613645 0.524994
283 1 0.016685 0.200299 0.5 -0.697898 0.391988
284 1 0.0885838 0.0630079 0.5 -0.696027 0.384311
285 1 0.0397013 0.0591336 0.5 -0.364141 -0.0790039
286 1 0.0951769 0.189611 0.5 -0.571249 0.0951855
287 1 0.0272894 0.124101 0.5 -0.787773 0.11134
288 1 0.0411723 0.172345 0.5 -0.86365 -0.0859319
289 1 0.103197 0.2609 0.5 -0.876824 0.245108
290 1 0.0187779 0.0118312 0.5 -0.365261 0.820025
291 1 0.00966453 0.236199 0.5 -0.791223 0.423995
292 1 0.0816393 0.999287 0.5 -0.946916 0.101925
293 1 0.102643 0.0394421 0.5 -0.642392 0.621002
294 1 0.0271041 0.114111 0.5 -0.822014 0.427737
295 1 0.0666756 0.154335 0.5 -0.604005 0.617908
296 1 0.0269823 0.244099 0.5 -0.760274 0.0318007
297 1 0.0595553 0.0595062 0.5 -0.565978 0.62191
298 1 0.0756682 0.168087 0.5 -0.68308 0.573821
299 1 0.025775 0.104633 0.5 -0.836054 0.228979
300 1 0.00613434 0.0634452 0.5 -0.597704 0.368214
301 1 0.0545667 0.228436 0.5 -0.844903 0.347796
302 1 0.0715904 0.993912 0.5 -0.686178 0.42004
303 1 0.977343 0.080295 0.5 -0.718963 0.321309
304 1 0.00840479 0.00730632 0.5 -0.815541 0.430208
305 1 0.0634102 0.201956 0.5 -0.630551 0.268468
306 1 0.0177071 0.0984608 0.5 -0.677858 0.286052
307 1 0.0892991 0.117678 0.5 -0.326498 0.169933
308 1 0.980239 0.213079 0.5 -0.697722 0.440592
309 1 0.116812 0.108669 0.5 -0.467744 0.419466
310 1 0.106585 0.0609706 0.5 -0.487825 0.30854
311 1 0.00180499 0.022646 0.5 -0.835044 0.192445
312 1 0.0706331 0.195566 0.5 -0.726636 0.529355
313 1 0.0887313 0.0835264 0.5 -0.643777 -0.451167
314 1 0.0307647 0.0345969 0.5 -0.63409 0.474727
315 1 0.0218715 0.0514688 0.5 -0.265596 0.89878
316 1 0.991594 0.258087 0.5 -0.871272 0.270273
317 1 0.0824502 0.231563 0.5 -0.755114 0.550884
318 1 0.0502738 0.976809 0.5 -0.610746 0.412119
319 1 0.0269485 0.257321 0.5 -0.423139 0.229978
320 1 0.0861326 0.0523429 0.5 -0.659611 0.533674
321 1 0.00542653 0.0729622 0.5 -0.767314 0.141285
322 1 0.954725 0.271153 0.5 -0.691913 0.361438
323 1 0.02089 0.504875 0.5 -0.600029 0.694076
324 1 0.119686 0.413493 0.5 -0.562729 0.33961
325 1 0.00318104 0.517378 0.5 -0.967378 0.0913797
326 1 0.0194876 0.484358 0.5 -0.859804 -0.104005
327 1 0.111205 0.386015 0.5 -0.316357 -0.15458
328 1 0.992653 0.390416 0.5 -0.944498 -0.0635986
329 1 0.0949507 0.336883 0.5 -0.0120098 -0.0469517
330 1 0.0759041 0.400092 0.5 -0.967421 -0.157718
331 1 0.0673827 0.415733 0.5 -0.708593 0.569088
332 1 0.991785 0.347645 0.5 -0.760871 0.198237
333 1 0.133636 0.449243 0.5 -0.903349 0.29946
334 1 0.977069 0.290579 0.5 -0.627767 0.481036
335 1 0.0274069 0.347491 0.5 -0.632166 0.374377
336 1 0.0312381 0.41004 0.5 -0.69863 0.454161
337 1 0.0190901 0.474039 0.5 -0.466845 0.474076
338 1 0.0755533 0.409933 0.5 -0.927591 0.186542
339 1 0.0264546 0.333771 0.5 -0.729506 0.428798
340 1 0.00559553 0.44687 0.5 -0.675754 0.442879
341 1 0.0230427 0.292725 0.5 -0.913257 -0.121321
342 1 0.998924 0.365767 0.5 -0.742321 0.315504
343 1 0.0962595 0.286986 0.5 -0.902946 0.291091
344 1 0.0931407 0.388327 0.5 -0.865861 0.037655
345 1 0.1059 0.331933 0.5 -0.896202 -0.304044
346 1 0.0963442 0.317428 0.5 -0.961735 0.13124
347 1 0.0826524 0.374922 0.5 -0.783368 0.335223
348 1 0.0801826 0.317863 0.5 -0.730605 0.311464
349 1 0.0610553 0.30956 0.5 -0.844153 0.387283
350 1 0.0999225 0.351202 0.5 -0.136043 0.511142
351 1 0.0936704 0.42004 0.5 -0.573604 0.252247
352 1 0.0239447 0.526604 0.5 -0.471443 0.328669
353 1 0.0419596 0.435118 0.5 -0.982854 0.00628476
354 1 0.0617085 0.331932 0.5 -0.893115 0.127166
355 1 0.0851558 0.335932 0.5 0.651518 -0.230318
356 1 0.966288 0.416943 0.5 -0.231539 0.325669
357 1 0.0160507 0.219669 0.5 -0.829793 0.448584
358 1 0.0208341 0.270769 0.5 -0.200403 0.467872
359 1 0.0654447 0.515276 0.5 -0.627964 0.263597
360 1 0.0631406 0.364883 0.5 -0.827804 0.164746
361 1 0.103149 0.251089 0.5 -0.802601 0.0446062
362 1 0.00818929 0.337688 0.5 -0.55788 0.610935
363 1 0.00882484 0.488637 0.5 -0.455735 0.103932
364 1 0.106043 0.302388 0.5 -0.920142 0.0326502
365 1 0.0483213 0.387276 0.5 -0.565313 0.605869
366 1 0.0949814 0.266904 0.5 -0.843544 0.350123
367 1 0.023199 0.283101 0.5 -0.885496 0.153534
368 1 0.0723495 0.337436 0.5 -0.298451 -0.124936
369 1 0.966682 0.396098 0.5 -0.76728 0.522724
370 1 0.105332 0.292916 0.5 -0.943926 0.194197
371 1 0.00170316 0.385175 0.5 -0.898694 0.0938306
372 1 0.0523834 0.315595 0.5 -0.788877 0.551867
373 1 0.0505079 0.296095 0.5 -0.86556 0.257626
374 1 0.040535 0.404114 0.5 -0.784857 0.575048
375 1 0.0738886 0.369456 0.5 -0.910687 0.200001
376 1 0.0139415 0.421955 0.5 -0.957082 -0.243428
377 1 0.0418208 0.425516 0.5 -0.873572 0.177956
378 1 0.112771 0.364953 0.5 -0.202124 0.400556
379 1 0.00698616 0.32526 0.5 -0.606269 0.743791
380 1 0.0686786 0.274967 0.5 -0.811443 0.270242
381 1 0.10341 0.425225 0.5 -0.660022 0.621123
382 1 0.0375897 0.383103 0.5 -0.709556 0.6445
383 1 0.0682203 0.2945 0.5 -0.796534 0.339673
384 1 0.0851999 0.414847 0.5 -0.853033 0.310822
385 1 0.0466463 0.495726 0.5 -0.871791 0.310106
386 1 0.99558 0.411433 0.5 -0.488031 0.598058
387 1 0.980156 0.321943 0.5 -0.591306 0.452989
388 1 0.0656446 0.404993 0.5 -0.575092 0.306522
389 1 0.0963839 0.432322 0.5 -0.681957 0.30108
390 1 0.979211 0.223635 0.5 -0.73063 0.486047
391 1 0.0787082 0.443148 0.5 -0.781676 0.445925
392 1 0.0605498 0.465644 0.5 -0.877006 0.356492
393 1 0.0742303 0.35794 0.5 -0.559043 0.307357
394 1 0.0107646 0.379065 0.5 -0.777939 0.284756
395 1 0.067698 0.425174 0.5 -0.631058 0.484522
396 1 0.0177201 0.340615 0.5 -0.558495 0.612975
397 1 0.0908912 0.36967 0.5 -0.483825 0.00742357
398 1 0.0231076 0.446423 0.5 -0.855653 0.417845
399 1 0.0346585 0.47232 0.5 -0.648051 0.680278
400 1 0.998298 0.332181 0.5 -0.80385 0.517491
401 1 0.0104198 0.500956 0.5 -0.535515 0.684755
402 1 0.973035 0.329678 0.5 -0.645544 0.378951
403 1 0.0882781 0.322689 0.5 -0.849677 -0.0758843
404 1 0.99265 0.380931 0.5 -0.762863 0.136696
405 1 0.0997934 0.49461 0.5 -0.876044 0.3991
406 1 0.0107299 0.268406 0.5 -0.225698 0.345334
407 1 0.0650678 0.253723 0.5 -0.811508 0.342142
408 1 0.962501 0.466116 0.5 -0.847261 0.49124
409 1 0.0425434 0.322067 0.5 -0.471541 0.646082
410 1 0.981617 0.374507 0.5 -0.74764 0.149443
411 1 0.114788 0.441193 0.5 -0.560818 0.733057
412 1 0.00959555 0.369675 0.5 -0.622624 0.729044
413 1 0.0934475 0.410246 0.5 -0.982853 0.0552753
414 1 0.125373 0.303696 0.5 -0.426315 -0.0858815
415 1 0.996068 0.421107 0.5 -0.972494 0.0895027
416 1 0.0460045 0.37789 0.5 -0.356231 0.732766
417 1 0.0161131 0.329487 0.5 -0.606317 0.696855
418 1 0.00447409 0.415838 0.5 -0.898022 0.178438
419 1 0.983648 0.263249 0.5 -0.712496 0.492527
420 1 0.093467 0.399663 0.5 -0.919583 0.142308
421 1 0.960354 0.304385 0.5 -0.769191 0.528364
422 1 0.976161 0.491776 0.5 -0.463516 0.474304
423 1 0.0865095 0.282682 0.5 -0.857129 0.480228
424 1 0.978823 0.421283 0.5 -0.585912 0.414955
425 1 0.0419835 0.291547 0.5 -0.814483 0.253524
426 1 0.0694233 0.325563 0.5 -0.503743 0.346279
427 1 0.064202 0.355485 0.5 -0.333107 0.0853275
428 1 0.0746154 0.380822 0.5 -0.753245 0.242072
429 1 0.0965893 0.307858 0.5 -0.984516 -0.119402
430 1 0.0499642 0.408455 0.5 -0.733419 0.498779
431 1 0.0757394 0.390237 0.5 -0.924185 0.1316
432 1 0.995339 0.443156 0.5 -0.617178 0.649014
433 1 0.982205 0.364713 0.5 -0.864968 -0.211627
434 1 0.0141925 0.410666 0.5 -0.587115 0.300306
435 1 0.0989436 0.472336 0.5 -0.733074 0.369865
436 1 0.0740389 0.490284 0.5 -0.920368 0.169565
437 1 0.991118 0.360661 0.5 -0.871009 -0.155947
438 1 0.999837 0.34278 0.5 -0.906289 0.296246
439 1 0.979373 0.455186 0.5 -0.863136 0.46639
440 1 0.0800408 0.454091 0.5 -0.785256 0.080713
441 1 0.0876006 0.292692 0.5 -0.931671 0.281032
442 1 0.0842824 0.405465 0.5 -0.947599 0.0661106
443 1 0.0844065 0.395027 0.5 -0.941081 0.201379
444 1 0.10193 0.374022 0.5 -0.529724 0.430962
445 1 0.0534087 0.440773 0.5 -0.366023 0.241507
446 1 0.0841452 0.353213 0.5 -0.353579 0.151551
447 1 0.039641 0.271785 0.5 -0.531408 0.710996
448 1 0.958432 0.401714 0.5 -0.680062 0.363494
449 1 0.0796504 0.34392 0.5 0.350276 -0.150214
450 1 0.984513 0.497237 0.5 -0.896497 0.0996133
451 1 0.093788 0.378976 0.5 -0.68947 0.217883
452 1 0.0654666 0.384166 0.5 -0.65133 0.33111
453 1 0.000787915 0.375614 0.5 -0.720884 0.618846
454 1 0.0919019 0.47902 0.5 -0.545765 0.330095
455 1 0.978649 0.445103 0.5 -0.91084 0.309116
456 1 0.95321 0.483104 0.5 -0.940594 0.0595516
457 1 0.101265 0.393795 0.5 -0.697562 0.275202
458 1 0.0815459 0.475031 0.5 -0.506747 0.649744
459 1 0.9724 0.349689 0.5 -0.931405 0.00371626
460 1 0.033942 0.420487 0.5 -0.653908 0.357988
461 1 0.0488084 0.275322 0.5 -0.527728 0.496657
462 1 0.984784 0.27592 0.5 -0.587888 0.582924
463 1 0.0592166 0.279073 0.5 -0.805642 0.234213
464 1 0.996955 0.321892 0.5 -0.693954 0.516923
465 1 0.9619 0.456365 0.5 -0.951079 0.24452
466 1 0.0170918 0.362665 0.5 -0.571517 0.226224
467 1 0.990653 0.371207 0.5 -0.706546 0.0123258
468 1 0.119273 0.482682 0.5 -0.809699 -0.00536866
469 1 0.0687636 0.460701 0.5 -0.830552 0.151345
470 1 0.0566471 0.510567 0.5 -0.622705 0.720444
471 1 0.0596671 0.290304 0.5 -0.974266 0.175645
472 1 0.0686456 0.28476 0.5 -0.886578 0.187382
473 1 0.0565868 0.258434 0.5 -0.313871 0.571332
474 1 0.0145112 0.441499 0.5 -0.902316 0.195128
475 1 0.0278668 0.488968 0.5 -0.619262 0.533857
476 1 0.0376095 0.339357 0.5 -0.616602 0.516729
477 1 0.994722 0.279407 0.5 -0.249519 0.804658
478 1 0.070763 0.314929 0.5 -0.733951 0.227617
479 1 0.1159 0.451349 0.5 -0.573411 0.787757
480 1 0.0508238 0.430129 0.5 -0.491173 0.586915
481 1 0.114827 0.297552 0.5 -0.911184 0.274844
482 1 0.105455 0.438155 0.5 -0.610171 0.458377
483 1 0.0602231 0.43231 0.5 -0.212516 0.775108
484 1 0.973028 0.339025 0.5 -0.909487 -0.0400183
485 1 0.101943 0.384153 0.5 -0.607658 0.129924
486 1 0.979077 0.432775 0.5 -0.698483 -0.0327896
487 1 0.0100573 0.347353 0.5 -0.689829 0.300665
488 1 0.0646831 0.374727 0.5 -0.88838 0.25673
489 1 0.0501565 0.418148 0.5 -0.856836 0.371178
490 1 0.0187662 0.385296 0.5 -0.599702 0.37824
491 1 0.110023 0.355333 0.5 0.0891989 0.841277
492 1 0.987385 0.416575 0.5 -0.655865 0.337956
493 1 0.101327 0.363768 0.5 -0.494768 0.373674
494 1 0.0195944 0.352635 0.5 -0.768446 0.0522658
495 1 0.0312754 0.400032 0.5 -0.789513 0.184645
496 1 0.0744478 0.248798 0.5 -0.737276 0.489464
497 1 0.0617245 0.47573 0.5 -0.691734 0.652326
498 1 0.0208996 0.403786 0.5 -0.493603 0.260615
499 1 0.986725 0.295588 0.5 -0.902976 0.225509
500 1 0.0357346 0.240375 0.5 -0.845874 -0.0825935
501 1 0.0319499 0.277352 0.5 -0.839131 0.44371
502 1 0.995145 0.512344 0.5 -0.778849 0.387511
503 1 0.0533193 0.336401 0.5 -0.685921 0.258066
504 1 0.00014619 0.231363 0.5 -0.638221 0.511201
505 1 0.0518757 0.306095 0.5 -0.746917 0.614108
506 1 0.963685 0.35421 0.5 -0.950569 -0.126628
507 1 0.0569444 0.401637 0.5 -0.632257 0.604223
508 1 0.986132 0.439534 0.5 -0.620426 0.190893
509 1 0.114198 0.429946 0.5 -0.645599 0.607156
510 1 0.031603 0.298269 0.5 -0.714144 0.131401
511 1 0.000590302 0.395813 0.5 -0.711037 0.105575
512 1 0.152831 0.436118 0.5 -0.441493 0.435974
513 1 0.0280052 0.357152 0.5 -0.757202 -0.0340263
514 1 0.0702026 0.470679 0.5 -0.644434 0.586938
515 1 0.0775748 0.278578 0.5 -0.787461 0.588989
516 1 0.0877248 0.427855 0.5 -0.363662 0.00457268
517 1 0.130932 0.387637 0.5 -0.578529 0.435223
518 1 0.0614818 0.319697 0.5 -0.809595 0.158844
519 1 0.0182197 0.494704 0.5 -0.612913 0.307652
520 1 0.0624835 0.444253 0.5 -0.520837 0.212641
521 1 0.964437 0.344623 0.5 -0.868773 0.0833705
522 1 0.0292178 0.498341 0.5 -0.479604 0.858674
523 1 0.0642085 0.504775 0.5 -0.69741 -0.0120174
524 1 0.0326185 0.440275 0.5 -0.838735 0.128218
525 1 0.0328396 0.461745 0.5 -0.808521 0.4637
526 1 0.0424042 0.455085 0.5 -0.910724 0.151014
527 1 0.131582 0.295691 0.5 -0.415799 0.101962
528 1 0.00367855 0.43704 0.5 -0.782786 0.239346
529 1 0.0355578 0.329693 0.5 -0.342264 0.545096
530 1 0.987666 0.426286 0.5 -0.884244 -0.0210464
531 1 0.0356024 0.363457 0.5 -0.608423 0.152457
532 1 0.987776 0.305592 0.5 -0.870866 0.46492
533 1 0.0451668 0.256451 0.5 -0.246661 0.228803
534 1 0.0879169 0.31272 0.5 -0.963511 0.156392
535 1 0.135896 0.470812 0.5 -0.819605 0.231498
536 1 0.0780943 0.46485 0.5 -0.510243 0.347708
537 1 0.115005 0.317723 0.5 -0.913842 -0.221416
538 1 0.00142817 0.262243 0.5 -0.857338 0.142308
539 1 0.993593 0.502727 0.5 -0.763169 0.533304
540 1 0.0587653 0.269545 0.5 -0.864056 0.22913
541 1 0.0388052 0.394232 0.5 -0.75082 0.619046
542 1 0.111702 0.419639 0.5 -0.687037 0.654083
543 1 0.0482933 0.398248 0.5 -0.754684 0.573222
544 1 0.0553787 0.490954 0.5 -0.844298 0.337627
545 1 0.0769577 0.268579 0.5 -0.684212 0.667222
546 1 0.0329375 0.318987 0.5 -0.645382 0.145394
547 1 0.128981 0.417386 0.5 -0.411411 0.274371
548 1 0.989206 0.459411 0.5 -0.799317 0.483199
549 1 0.130346 0.408079 0.5 -0.878251 -0.103333
550 1 0.0414446 0.414048 0.5 -0.786289 0.535603
551 1 0.997762 0.464198 0.5 -0.877553 0.351822
552 1 0.0783387 0.297933 0.5 -0.816454 0.318685
553 1 0.088103 0.303024 0.5 -0.984678 0.056453
554 1 0.110673 0.410151 0.5 -0.872634 0.315281
555 1 0.982933 0.485334 0.5 -0.597711 0.538876
556 1 0.0432617 0.465624 0.5 -0.8259 0.247112
557 1 0.069956 0.304598 0.5 -0.780871 0.517181
558 1 0.0190663 0.373553 0.5 -0.822709 0.330658
559 1 0.105222 0.281503 0.5 -0.925303 0.246431
560 1 0.0143357 0.308134 0.5 -0.866192 0.424247
561 1 0.979663 0.310784 0.5 -0.372155 0.451541
562 1 0.0389814 0.501778 0.5 -0.619786 0.632227
563 1 0.033655 0.309179 0.5 -0.555172 0.248681
564 1 0.0144189 0.298624 0.5 -0.92857 0.124873
565 1 0.021404 0.394383 0.5 -0.666412 0.306746
566 1 0.0925944 0.511077 0.5 -0.929275 0.208007
567 1 0.0109384 0.391144 0.5 -0.791099 0.173557
568 1 0.0242221 0.322999 0.5 -0.794621 0.137518
569 1 0.0228237 0.436943 0.5 -0.87191 0.285005
570 1 0.109344 0.487456 0.5 -0.712242 0.0867694
571 1 0.128895 0.37636 0.5 -0.605802 0.521741
572 1 0.0230445 0.302489 0.5 -0.879513 0.17647
573 1 0.0032026 0.507378 0.5 -0.758577 0.495324
574 1 0.963586 0.363598 0.5 -0.795977 -0.118074
575 1 0.00738805 0.469002 0.5 -0.568423 0.649197
576 1 0.992215 0.402566 0.5 -0.355638 0.286335
577 1 0.0427285 0.356453 0.5 -0.139346 0.224633
578 1 0.0186162 0.239658 0.5 -0.787071 0.563602
579 1 0.0930986 0.358553 0.5 -0.544442 -0.00992792
580 1 0.0953762 0.276975 0.5 -0.939862 0.266009
581 1 0.0368044 0.349217 0.5 -0.33813 -0.0135366
582 1 0.0112526 0.400948 0.5 -0.62412 0.431764
583 1 0.0027477 0.405292 0.5 -0.501617 0.646258
584 1 0.043396 0.475645 0.5 -0.644561 0.344087
585 1 0.0971579 0.298068 0.5 -0.949413 0.11672
586 1 0.0573201 0.391944 0.5 -0.582791 0.558174
587 1 0.0842655 0.384442 0.5 -0.795358 0.464837
588 1 0.0303691 0.268017 0.5 -0.228468 0.398743
589 1 0.110623 0.396214 0.5 -0.345293 0.0478859
590 1 0.992431 0.491976 0.5 -0.743659 0.464694
591 1 0.0327902 0.288874 0.5 -0.681366 0.093891
592 1 0.958949 0.294284 0.5 -0.73519 0.648071
593 1 0.0448625 0.332282 0.5 -0.454662 0.754007
594 1 0.0634705 0.485314 0.5 -0.690072 0.562613
595 1 0.96679 0.288519 0.5 -0.51055 0.535142
596 1 0.0530898 0.359793 0.5 -0.653101 0.115881
597 1 0.0417892 0.444609 0.5 -0.855975 -0.0398113
598 1 0.0905694 0.345437 0.5 0.294928 0.342556
599 1 0.0538153 0.326542 0.5 -0.750064 0.325684
600 1 0.051791 0.460994 0.5 -0.962051 -0.0388655
601 1 0.0763466 0.420657 0.5 -0.925051 0.17224
602 1 0.138295 0.403181 0.5 -0.570975 0.0637056
603 1 0.127219 0.464275 0.5 -0.591405 0.457643
604 1 0.121095 0.251013 0.5 -0.79859 0.485807
605 1 0.0692864 0.437299 0.5 -0.650107 0.507318
606 1 0.0787784 0.288436 0.5 -0.811889 0.38667
607 1 0.0468914 0.343702 0.5 -0.443674 0.187596
608 1 0.00651634 0.293618 0.5 -0.818449 0.207367
609 1 0.0246541 0.312973 0.5 -0.822266 -0.0968242
610 1 0.997879 0.453599 0.5 -0.663593 0.501102
611 1 0.0820548 0.485111 0.5 -0.94558 0.300325
612 1 0.981528 0.334718 0.5 -0.706652 0.315249
613 1 0.106717 0.447692 0.5 -0.741254 0.619398
614 1 0.0141189 0.277352 0.5 -0.441889 0.593646
615 1 0.0221665 0.427062 0.5 -0.765926 0.0330194
616 1 0.996678 0.299936 0.5 -0.940804 0.195996
617 1 0.066875 0.39449 0.5 -0.691223 0.169593
618 1 0.996676 0.309592 0.5 -0.841709 0.303196
619 1 0.0866363 0.437292 0.5 -0.710811 0.0431132
620 1 0.977436 0.300885 0.5 -0.498154 0.589621
621 1 0.0918963 0.246994 0.5 -0.866156 0.165704
622 1 0.0967032 0.327415 0.5 -0.851525 0.0325901
623 1 0.995541 0.43194 0.5 -0.890523 -0.0386343
624 1 0.0584343 0.412997 0.5 -0.594958 0.515047