# LAMMPS data file written by Ovito 3.7.11
10490 atoms
1 atom types
-58.36 58.36 xlo xhi
-58.36 58.36 ylo yhi
-0.5 0.5 zlo zhi

Atoms  # atomic

1 1 -46.41569224 -44.41009248 0.0
2 1 -53.225288776 -46.35499784 0.0
3 1 -48.777708192 -57.2412784848 0.0
4 1 -52.63476728 -38.87698088 0.0
5 1 -48.947512448 -44.08794528 0.0
6 1 -44.09588224 -41.93959696 0.0
7 1 -50.960792384 -31.1770792 0.0
8 1 -47.640190088 -42.0705568 0.0
9 1 -47.040389352 -49.267698752 0.0
10 1 -57.5890363872 -48.514364528 0.0
11 1 56.6191212 -53.161979848 0.0
12 1 -54.44661184 -33.7781844 0.0
13 1 -51.300354208 -48.99707176 0.0
14 1 -45.11741568 -52.106737672 0.0
15 1 -49.608637872 -43.12792328 0.0
16 1 -52.117767712 -32.86858544 0.0
17 1 58.076954 -49.138349648 0.0
18 1 -52.172229264 58.07263536 0.0
19 1 -51.395107504 -47.759407896 0.0
20 1 -55.982693728 -55.838719608 0.0
21 1 -47.364777576 -39.7513304 0.0
22 1 -51.702629688 -39.56586232 0.0
23 1 -47.234914904 -51.768728224 0.0
24 1 -52.059792888 -45.70358352 0.0
25 1 -45.22981704 -53.253651736 0.0
26 1 -49.20220716 -36.20339256 0.0
27 1 -54.390796336 -49.432273952 0.0
28 1 -47.584246192 -30.73961264 0.0
29 1 -47.757598736 -33.12933792 0.0
30 1 -51.713239536 -54.12434792 0.0
31 1 -54.25606644 -45.68747616 0.0
32 1 -48.6121292 -40.61750952 0.0
33 1 -50.625572544 -39.0860264 0.0
34 1 -54.567580448 -36.65428192 0.0
35 1 -46.19730912 -48.533413232 0.0
36 1 -48.239699024 -36.98203168 0.0
37 1 -50.593672968 -53.33777184 0.0
38 1 -50.888437656 -41.59585656 0.0
39 1 -58.2338770368 -29.14299976 0.0
40 1 -50.251625008 -48.553115568 0.0
41 1 -44.75126504 -49.136563832 0.0
42 1 -48.746322184 -33.71784016 0.0
43 1 -45.37875176 -32.00077224 0.0
44 1 -55.057512648 -56.750979784 0.0
45 1 -51.740248544 -40.76200888 0.0
46 1 -58.1668178952 -41.79544776 0.0
47 1 -54.242620296 -35.17952472 0.0
48 1 -45.26378256 -41.44587136 0.0
49 1 -54.677974224 -52.077884488 0.0
50 1 -56.44088976 -50.373457344 0.0
51 1 58.35112928 -46.733824272 0.0
52 1 -46.02573072 -37.86081656 0.0
53 1 -47.684368608 -56.722558464 0.0
54 1 -46.00822272 -49.677152512 0.0
55 1 -45.675454 -42.45619968 0.0
56 1 -48.917340328 -32.55414176 0.0
57 1 -52.671627456 -41.46162856 0.0
58 1 -55.512405504 -51.176794416 0.0
59 1 -56.914527848 -54.028532472 0.0
60 1 -55.523365512 -35.79522272 0.0
61 1 -49.29330712 -37.33499296 0.0
62 1 -54.656696168 -37.86210048 0.0
63 1 -52.041082672 -29.41028856 0.0
64 1 -51.848786472 -44.47568912 0.0
65 1 -49.157596776 -48.156582712 0.0
66 1 -48.308330384 -26.63363648 0.0
67 1 -57.3252060008 -47.322128088 0.0
68 1 -54.278441664 -31.52572184 0.0
69 1 -48.730086432 -54.745029864 0.0
70 1 -54.03003816 -43.00746824 0.0
71 1 -52.516705 -27.3936004 0.0
72 1 -57.9560484208 -40.711936 0.0
73 1 -46.762362312 -42.7288576 0.0
74 1 57.06008936 -47.077891488 0.0
75 1 -50.158213992 -32.99931184 0.0
76 1 -47.382203872 -40.9500448 0.0
77 1 -55.968243792 -54.603343456 0.0
78 1 -57.4142913736 -44.81476072 0.0
79 1 -56.000260088 -41.87808552 0.0
80 1 -46.09167752 -47.391343048 0.0
81 1 -54.319982312 -29.1759148 0.0
82 1 -53.163368816 -33.2902948 0.0
83 1 -48.591329696 -28.93827288 0.0
84 1 -46.46109632 -41.6235192 0.0
85 1 -56.936517896 -41.2114976 0.0
86 1 -43.04120032 -51.901660632 0.0
87 1 57.10082464 -45.88274872 0.0
88 1 -51.765740192 -52.56205072 0.0
89 1 -46.799864448 -33.91813168 0.0
90 1 -57.425942364 -34.4650816 0.0
91 1 -51.31810732 -50.176749128 0.0
92 1 57.9042084 -39.96352736 0.0
93 1 -47.68665632 -55.217115576 0.0
94 1 57.29481328 -43.58931744 0.0
95 1 -57.382370788 -31.97812856 0.0
96 1 -54.64789548 -38.95553344 0.0
97 1 -57.7826701984 -36.82877832 0.0
98 1 -52.988977464 -56.909357152 0.0
99 1 -42.89903536 -50.781101944 0.0
100 1 -47.670327192 -31.9445132 0.0
101 1 -53.626116928 -39.39113248 0.0
102 1 -57.5155471408 57.81701856 0.0
103 1 -44.1329992 -52.659465232 0.0
104 1 -55.29779244 -31.0510216 0.0
105 1 -56.928907752 -39.96481128 0.0
106 1 -56.422074496 -45.46582488 0.0
107 1 -51.025058416 -45.31058728 0.0
108 1 -48.477282584 -39.468868 0.0
109 1 -51.0040138 -58.2426240336 0.0
110 1 -56.9398094 -37.5237292 0.0
111 1 -52.300352808 56.79910344 0.0
112 1 -53.735518584 -41.78797768 0.0
113 1 -54.855038464 -40.30715104 0.0
114 1 -48.420031424 -27.75811696 0.0
115 1 -57.2325034752 -43.54904904 0.0
116 1 -51.61049092 -38.33750104 0.0
117 1 56.83808792 -36.67610856 0.0
118 1 -49.141209288 -45.40594752 0.0
119 1 -54.240355928 -46.801230072 0.0
120 1 -49.683957288 -41.10108048 0.0
121 1 56.3045608 -45.10807808 0.0
122 1 -52.386433808 -25.04764512 0.0
123 1 -55.812831112 -39.47925608 0.0
124 1 -48.034808736 -49.892360848 0.0
125 1 56.6080328 -51.952410488 0.0
126 1 -55.268449032 -57.8601606064 0.0
127 1 -57.17943556 -55.117039848 0.0
128 1 -52.617049184 -53.372881216 0.0
129 1 -48.244659624 -47.529387792 0.0
130 1 -58.3053711882 -26.62079728 0.0
131 1 -46.21143224 -36.69466704 0.0
132 1 -54.848502144 -53.225218744 0.0
133 1 -51.71612252 -55.301912656 0.0
134 1 -52.528295296 -51.776069912 0.0
135 1 -54.830608968 -41.55337048 0.0
136 1 -57.3957690768 -46.03716928 0.0
137 1 -57.155519632 -56.261047584 0.0
138 1 -50.486115488 -27.39908624 0.0
139 1 -50.445018376 -52.168517568 0.0
140 1 55.76846584 -37.09898512 0.0
141 1 -45.45625384 -30.70156192 0.0
142 1 -50.671466848 -57.097217992 0.0
143 1 -56.109358272 -29.04425464 0.0
144 1 -49.48828788 -52.82636316 0.0
145 1 -49.746752648 -55.399560608 0.0
146 1 -48.36275692 -43.10014392 0.0
147 1 -53.56648468 -37.12851528 0.0
148 1 -47.767286496 -34.50231528 0.0
149 1 53.98136592 -30.86473648 0.0
150 1 -49.385352512 -51.71139536 0.0
151 1 -46.52704312 -54.941341232 0.0
152 1 -51.853490288 -42.20548512 0.0
153 1 -51.9672456 -30.53068384 0.0
154 1 -49.677397624 -56.581817488 0.0
155 1 -47.031950496 -50.50976296 0.0
156 1 -50.866949504 -43.94169512 0.0
157 1 -53.984412312 -56.205768992 0.0
158 1 -56.27147068 -27.88452472 0.0
159 1 56.68343392 -40.38150168 0.0
160 1 -53.465626928 -50.150662208 0.0
161 1 -56.704711976 -49.215594944 0.0
162 1 -52.898227664 -55.706335784 0.0
163 1 -53.870388544 -55.046179136 0.0
164 1 -56.3413276 -31.52817296 0.0
165 1 -53.473762312 -52.572812304 0.0
166 1 -53.327862312 -48.818525176 0.0
167 1 -47.126727136 -38.62288144 0.0
168 1 -58.0060372624 -52.020621656 0.0
169 1 -42.70983224 -47.989463016 0.0
170 1 57.10082464 56.78054496 0.0
171 1 -46.54198328 58.20873088 0.0
172 1 -52.2097314 -36.3967976 0.0
173 1 -52.308138032 -48.377673736 0.0
174 1 -52.396086552 -50.677863104 0.0
175 1 -55.27730808 -34.60316136 0.0
176 1 -52.245762864 -34.00473792 0.0
177 1 -50.882239824 -29.976614 0.0
178 1 -53.3246992 -32.15215808 0.0
179 1 -50.0369886 -34.16382728 0.0
180 1 -46.27994688 -40.44418032 0.0
181 1 -49.083771376 -50.44072308 0.0
182 1 -53.02887236 -45.07971512 0.0
183 1 -54.488082456 -50.594828496 0.0
184 1 -47.624572952 -54.109034256 0.0
185 1 -55.113935096 -42.75301864 0.0
186 1 58.08372376 -33.59995296 0.0
187 1 -51.948383648 -56.372561872 0.0
188 1 -45.30766928 -54.347469872 0.0
189 1 -47.158778448 -47.843528 0.0
190 1 -57.1953573352 -29.63123952 0.0
191 1 -56.472182392 -33.8791472 0.0
192 1 -54.123099016 -27.96307728 0.0
193 1 56.5846888 -41.60962952 0.0
194 1 -47.078288336 -46.65099976 0.0
195 1 -57.5175407184 -33.18851496 0.0
196 1 -53.116610784 -29.71434416 0.0
197 1 56.76046912 -50.788420288 0.0
198 1 -49.106660168 -34.89787936 0.0
199 1 -55.431098352 -47.525150856 0.0
200 1 -41.99200424 -50.110195384 0.0
201 1 -48.567939008 -53.485492672 0.0
202 1 -50.171473384 -46.05432712 0.0
203 1 -51.146563936 -35.9421732 0.0
204 1 -54.406180032 -48.056973864 0.0
205 1 -51.247164904 -46.64493032 0.0
206 1 -48.457848704 -38.1925348 0.0
207 1 -55.721345976 -38.1890332 0.0
208 1 -48.97390284 -49.314795272 0.0
209 1 -52.387040752 -47.117249472 0.0
210 1 -49.787756384 -30.52134624 0.0
211 1 -50.319252576 -50.782467568 0.0
212 1 57.04316496 -34.1557736 0.0
213 1 56.65250312 -37.88194288 0.0
214 1 -56.391120352 -44.2759812 0.0
215 1 -58.308928347 -30.23818352 0.0
216 1 -56.576670136 -48.13030904 0.0
217 1 -53.712489728 -40.63408376 0.0
218 1 -52.71069364 -40.0250388 0.0
219 1 57.04351512 -31.81740512 0.0
220 1 -52.281467512 -49.515086792 0.0
221 1 -58.2399137952 -42.9757204 0.0
222 1 -51.158387672 -33.50949496 0.0
223 1 -55.475755424 -33.4035132 0.0
224 1 -57.9566133456 -38.00123072 0.0
225 1 -48.625528656 -56.048313712 0.0
226 1 -44.39398512 -32.5047692 0.0
227 1 -50.170352872 -47.338002008 0.0
228 1 -50.100029072 -49.697928672 0.0
229 1 -45.02205544 -50.478995568 0.0
230 1 -52.202506432 -35.20403592 0.0
231 1 -47.343009296 -52.970267248 0.0
232 1 -43.9608372 -51.261311368 0.0
233 1 57.83569376 -38.69454752 0.0
234 1 -52.961104728 -42.58669264 0.0
235 1 -53.38171692 -47.680201704 0.0
236 1 -57.8042038712 -39.1764844 0.0
237 1 -48.76427372 -41.93422784 0.0
238 1 -57.242300952 -42.43133832 0.0
239 1 -50.766827088 -42.84137568 0.0
240 1 -53.08297208 -43.83442944 0.0
241 1 -56.75865996 -38.72862976 0.0
242 1 55.29890128 -44.64084792 0.0
243 1 -50.281773784 -36.68731368 0.0
244 1 -53.404792464 -35.90634016 0.0
245 1 -49.170996232 -46.690311056 0.0
246 1 -49.455874736 -28.18461184 0.0
247 1 -54.926949656 -55.437552968 0.0
248 1 -55.424947208 -32.17515192 0.0
249 1 56.78147872 -39.17893552 0.0
250 1 -54.04468652 -44.39585264 0.0
251 1 -55.48203496 -49.818990656 0.0
252 1 57.65991344 -41.09559464 0.0
253 1 -56.152976536 -43.19036848 0.0
254 1 -53.188405256 -34.62452112 0.0
255 1 -49.98860816 -44.66139064 0.0
256 1 -56.695992992 -51.60377952 0.0
257 1 -47.320610728 -43.69915096 0.0
258 1 -44.79970384 -37.34701512 0.0
259 1 -55.9328076 -40.73259544 0.0
260 1 57.83032464 -50.267533944 0.0
261 1 -44.02760104 -49.999965016 0.0
262 1 -45.9304872 -46.2608048 0.0
263 1 57.96245168 -47.886469288 0.0
264 1 56.94955552 -49.457497144 0.0
265 1 -52.877334784 -54.492144312 0.0
266 1 58.01077376 -32.4388224 0.0
267 1 -47.260464912 -37.49209808 0.0
268 1 -53.207955856 -31.04075024 0.0
269 1 -51.044597344 -32.30587832 0.0
270 1 -49.52441272 -39.90925256 0.0
271 1 -50.042906304 -31.80888456 0.0
272 1 55.61708 -40.76481016 0.0
273 1 -44.25287064 -55.002304088 0.0
274 1 -43.63950704 -48.679056448 0.0
275 1 -49.667651504 -53.967686336 0.0
276 1 -54.427714872 -32.6442496 0.0
277 1 -56.565068168 -36.40205 0.0
278 1 -51.489253856 -37.25772432 0.0
279 1 -50.544137 -37.87564 0.0
280 1 -50.690515552 -54.814408232 0.0
281 1 -51.912492248 -43.3544768 0.0
282 1 57.83324264 -36.1114172 0.0
283 1 -56.4125268 -34.98110072 0.0
284 1 -48.020498864 -51.005717912 0.0
285 1 -53.726064264 -51.457926208 0.0
286 1 -47.250952232 -36.22860408 0.0
287 1 -55.174781232 -43.87493128 0.0
288 1 -53.554369144 -38.2438916 0.0
289 1 -46.31484616 -27.907752 0.0
290 1 -56.168243512 -56.979062336 0.0
291 1 -57.2319560584 -30.79085272 0.0
292 1 -48.831060904 58.27677864 0.0
293 1 -46.37950904 -53.756318088 0.0
294 1 -55.196409448 -45.04096408 0.0
295 1 -50.577623968 -40.3460188 0.0
296 1 -55.210625944 -29.86876472 0.0
297 1 -51.408705384 -51.414436336 0.0
298 1 -49.528007696 -38.74088536 0.0
299 1 -55.351542 -46.14723624 0.0
300 1 -57.6439998352 -50.954676256 0.0
301 1 -51.990974776 -31.69695008 0.0
302 1 -50.003968512 57.64940864 0.0
303 1 55.71547496 -48.9879676 0.0
304 1 -57.3789929112 -57.5072063296 0.0
305 1 -50.958761456 -34.78769568 0.0
306 1 -56.293227288 -46.867655424 0.0
307 1 -47.937009048 -44.62462384 0.0
308 1 56.05349608 -33.48941912 0.0
309 1 -44.72570336 -45.67615432 0.0
310 1 -45.9193988 -51.243511568 0.0
311 1 -58.1493215672 -55.71675888 0.0
312 1 -50.115704568 -35.53353648 0.0
313 1 -48.003282664 -48.610798592 0.0
314 1 -54.769144216 -54.321849832 0.0
315 1 -55.80715852 -52.352561664 0.0
316 1 57.37885168 -28.23608536 0.0
317 1 -48.736412656 -31.33196664 0.0
318 1 -52.492042064 55.65314648 0.0
319 1 -55.21457108 -28.32549288 0.0
320 1 -48.306602928 -52.250536712 0.0
321 1 -57.7266154184 -49.843852016 0.0
322 1 53.075502 -26.71102184 0.0
323 1 -55.9217192 0.56901 0.0
324 1 -44.39025008 -10.09709704 0.0
325 1 -57.9887090112 2.02836016 0.0
326 1 -56.085407328 -1.82573424 0.0
327 1 -45.3801524 -13.3043292 0.0
328 1 57.50245816 -12.79064448 0.0
329 1 -47.277354296 -19.03901624 0.0
330 1 -49.500473448 -11.66126176 0.0
331 1 -50.495091256 -9.83564424 0.0
332 1 57.4011452 -17.7828756 0.0
333 1 -42.76200608 -5.92435704 0.0
334 1 55.68349368 -24.44361912 0.0
335 1 -55.161066632 -17.80085048 0.0
336 1 -54.713888968 -10.5001312 0.0
337 1 -56.131803528 -3.03016792 0.0
338 1 -49.541418824 -10.51262024 0.0
339 1 -55.272219088 -19.40224888 0.0
340 1 -57.7068897384 -6.2013336 0.0
341 1 -55.670456056 -24.193138 0.0
342 1 58.23440928 -15.66767576 0.0
343 1 -47.12459116 -24.86299408 0.0
344 1 -47.488617496 -13.03447256 0.0
345 1 -45.999352 -19.61678024 0.0
346 1 -47.114704976 -21.30980384 0.0
347 1 -48.712811872 -14.59910416 0.0
348 1 -49.001086928 -21.25903064 0.0
349 1 -51.233625384 -22.2281568 0.0
350 1 -46.6970458 -17.36770256 0.0
351 1 -47.426790912 -9.3329312 0.0
352 1 -55.565174616 3.10521888 0.0
353 1 -53.462475488 -7.57302704 0.0
354 1 -51.15738388 -19.61689696 0.0
355 1 -48.420615024 -19.15001696 0.0
356 1 54.42513536 -9.69441304 0.0
357 1 -56.486562296 -32.72023432 0.0
358 1 -55.928243848 -26.75584232 0.0
359 1 -50.721294616 1.78301472 0.0
360 1 -50.990229168 -15.77085624 0.0
361 1 -46.32044872 -29.05289192 0.0
362 1 -57.4041460712 -18.94505664 0.0
363 1 -57.3299646752 -1.32628936 0.0
364 1 -45.98266104 -23.06527264 0.0
365 1 -52.719937864 -13.15714528 0.0
366 1 -47.273770992 -27.20696512 0.0
367 1 -55.65221272 -25.31645128 0.0
368 1 -49.91536636 -18.97447008 0.0
369 1 54.47112304 -12.12744144 0.0
370 1 -46.06564896 -24.17084448 0.0
371 1 -58.1612071648 -13.402374 0.0
372 1 -52.245809552 -21.5237516 0.0
373 1 -52.464717912 -23.7997916 0.0
374 1 -53.6287548 -11.19181392 0.0
375 1 -49.735722608 -15.23709568 0.0
376 1 -56.73274812 -9.1094124 0.0
377 1 -53.478676224 -8.69377248 0.0
378 1 -45.19736888 -15.76268584 0.0
379 1 -57.5445754048 -20.3956528 0.0
380 1 -50.343833808 -26.26585176 0.0
381 1 -46.2899848 -8.727738 0.0
382 1 -53.972530216 -13.64421784 0.0
383 1 -50.397326584 -23.98596 0.0
384 1 -48.415467672 -9.93905816 0.0
385 1 -52.915443864 -0.49886128 0.0
386 1 57.8440976 -10.33754024 0.0
387 1 56.04380832 -20.78281304 0.0
388 1 -50.697962288 -11.08921704 0.0
389 1 -47.110071192 -7.89937616 0.0
390 1 55.93350792 -32.2573228 0.0
391 1 -49.173178896 -6.63576544 0.0
392 1 -51.292627344 -4.01003232 0.0
393 1 -49.695839384 -16.5812432 0.0
394 1 -57.103555888 -14.1155332 0.0
395 1 -50.45828944 -8.73369072 0.0
396 1 -56.291709928 -18.6034172 0.0
397 1 -47.751179136 -15.2121176 0.0
398 1 -55.662880928 -6.25350744 0.0
399 1 -54.31465988 -3.2308096 0.0
400 1 58.16134256 -19.58783368 0.0
401 1 -57.143800944 0.11158432 0.0
402 1 55.2126452 -19.87998384 0.0
403 1 -48.056180168 -20.69573992 0.0
404 1 57.502108 -13.89773368 0.0
405 1 -46.712114352 -0.6291208 0.0
406 1 -57.107606072 -27.03165168 0.0
407 1 -50.765286384 -28.74545144 0.0
408 1 53.98311672 -3.95494048 0.0
409 1 -53.394334352 -20.76833976 0.0
410 1 56.21433624 -14.64754296 0.0
411 1 -44.96194464 -6.86395304 0.0
412 1 -57.240007404 -15.211534 0.0
413 1 -47.4528078 -10.47608688 0.0
414 1 -43.72646344 -22.91260288 0.0
415 1 57.90105696 -9.20839096 0.0
416 1 -52.99035476 -14.2526792 0.0
417 1 -56.479278968 -19.90227736 0.0
418 1 -57.8377842152 -9.82338864 0.0
419 1 56.45139456 -27.63357672 0.0
420 1 -47.45053176 -11.71133464 0.0
421 1 53.73251888 -22.8321828 0.0
422 1 55.57751192 -0.95990528 0.0
423 1 -48.26261116 -25.36535696 0.0
424 1 55.88822056 -9.18784824 0.0
425 1 -53.45968588 -24.33063416 0.0
426 1 -50.256912424 -20.36028664 0.0
427 1 -50.86634256 -16.8677908 0.0
428 1 -49.650890512 -13.91045616 0.0
429 1 -47.086096904 -22.42681424 0.0
430 1 -52.528178576 -10.6851324 0.0
431 1 -49.519697232 -12.81153736 0.0
432 1 57.81596808 -6.63483168 0.0
433 1 56.2829676 -15.79069864 0.0
434 1 -56.7034514 -10.42706448 0.0
435 1 -46.811303008 -3.22894208 0.0
436 1 -49.718179592 -1.13405152 0.0
437 1 57.32329296 -16.26364808 0.0
438 1 58.34097464 -18.3507184 0.0
439 1 55.95241656 -5.23069008 0.0
440 1 -49.017637824 -5.35849848 0.0
441 1 -48.135257968 -24.19698976 0.0
442 1 -48.522558272 -11.0341252 0.0
443 1 -48.50807332 -12.25244856 0.0
444 1 -46.4627304 -14.70415216 0.0
445 1 -52.126136536 -6.91297544 0.0
446 1 -48.538572256 -17.13297864 0.0
447 1 -53.73310248 -26.6372548 0.0
448 1 53.50818304 -11.47194192 0.0
449 1 -49.063205312 -18.2176576 0.0
450 1 56.55235736 -0.32249736 0.0
451 1 -47.41306464 -14.12592128 0.0
452 1 -50.718738448 -13.52014448 0.0
453 1 -58.2680345612 -14.51833392 0.0
454 1 -47.633210232 -2.4487856 0.0
455 1 55.86791128 -6.40757784 0.0
456 1 52.8986712 -1.97210112 0.0
457 1 -46.5403492 -12.3962476 0.0
458 1 -48.841962552 -2.91438168 0.0
459 1 55.138528 -17.54429992 0.0
460 1 -54.39828976 -9.28075736 0.0
461 1 -52.663083552 -26.22441616 0.0
462 1 56.58398848 -26.1546176 0.0
463 1 -51.448238448 -25.78659944 0.0
464 1 58.0045876 -20.78876576 0.0
465 1 53.912968 -5.0930772 0.0
466 1 -56.365045104 -16.0297412 0.0
467 1 57.26901816 -15.03271896 0.0
468 1 -44.43845544 -2.02135696 0.0
469 1 -50.333912608 -4.58697928 0.0
470 1 -51.748150488 1.23338024 0.0
471 1 -51.395656088 -24.47571712 0.0
472 1 -50.347685568 -25.1228128 0.0
473 1 -51.755188704 -28.19558352 0.0
474 1 -56.666252736 -6.82823672 0.0
475 1 -55.107387104 -1.28765504 0.0
476 1 -53.97021916 -18.75025096 0.0
477 1 57.74395184 -25.74761496 0.0
478 1 -50.10054264 -21.60148712 0.0
479 1 -44.832152 -5.67854472 0.0
480 1 -52.427846064 -8.15534312 0.0
481 1 -44.95739256 -23.62973056 0.0
482 1 -46.0512924 -7.2185484 0.0
483 1 -51.330759768 -7.9007768 0.0
484 1 55.21182816 -18.789002 0.0
485 1 -46.46121304 -13.52166184 0.0
486 1 55.91786744 -7.846502 0.0
487 1 -57.186111944 -17.81695784 0.0
488 1 -50.810188568 -14.62186456 0.0
489 1 -52.50573332 -9.55376544 0.0
490 1 -56.169609136 -13.38825088 0.0
491 1 -45.51811544 -16.88553224 0.0
492 1 56.8875772 -9.737366 0.0
493 1 -46.53311256 -15.90099904 0.0
494 1 -56.072941632 -17.2004428 0.0
495 1 -54.709535312 -11.66826496 0.0
496 1 -49.670452784 -29.32029744 0.0
497 1 -51.15551636 -2.8327944 0.0
498 1 -55.920598688 -11.23009808 0.0
499 1 56.810542 -23.85896864 0.0
500 1 -54.189057488 -30.30343 0.0
501 1 -54.630807672 -25.98747456 0.0
502 1 57.7933244 1.44079168 0.0
503 1 -52.136571304 -19.09527528 0.0
504 1 -58.3429367032 -31.35531064 0.0
505 1 -52.305068296 -22.6325916 0.0
506 1 54.1213132 -17.0166088 0.0
507 1 -51.713449632 -11.48092936 0.0
508 1 56.74132704 -7.05759152 0.0
509 1 -45.03080944 -8.17670288 0.0
510 1 -54.67129784 -23.54604232 0.0
511 1 -58.2910999506 -12.16070664 0.0
512 1 -40.52156568 -7.45630704 0.0
513 1 -55.091233056 -16.67321856 0.0
514 1 -50.165952528 -3.42234712 0.0
515 1 -49.305469344 -25.84437584 0.0
516 1 -48.120761344 -8.4207644 0.0
517 1 -43.07761696 -13.11500936 0.0
518 1 -51.183844304 -21.04496616 0.0
519 1 -56.233396616 -0.61814912 0.0
520 1 -51.06692588 -6.50678984 0.0
521 1 54.20908664 -18.13560344 0.0
522 1 -54.949698384 -0.19363848 0.0
523 1 -50.86558388 0.557338 0.0
524 1 -54.55276868 -6.971102 0.0
525 1 -54.526961888 -4.4651236 0.0
526 1 -53.410581776 -5.2424788 0.0
527 1 -43.00174896 -23.84694648 0.0
528 1 -57.930639644 -7.3486912 0.0
529 1 -54.209693584 -19.87823304 0.0
530 1 56.92037552 -8.60389808 0.0
531 1 -54.204487872 -15.93729896 0.0
532 1 56.93321472 -22.69130176 0.0
533 1 -53.088131104 -28.42703928 0.0
534 1 -48.098339432 -21.8593216 0.0
535 1 -42.49821888 -3.40682336 0.0
536 1 -49.244833304 -4.102708 0.0
537 1 -44.9366164 -21.27537144 0.0
538 1 -58.1933039976 -27.75099704 0.0
539 1 57.61217496 0.31829544 0.0
540 1 -51.500914184 -26.8987076 0.0
541 1 -53.830657056 -12.34524096 0.0
542 1 -45.32214256 -9.37973592 0.0
543 1 -52.723206024 -11.87649344 0.0
544 1 -51.896198136 -1.05584912 0.0
545 1 -49.377497256 -27.01145912 0.0
546 1 -54.515535 -21.12783736 0.0
547 1 -43.30533768 -9.64270608 0.0
548 1 57.10012432 -4.73754808 0.0
549 1 -43.14601488 -10.72901912 0.0
550 1 -53.522586288 -10.03231744 0.0
551 1 58.09878064 -4.17880944 0.0
552 1 -49.216306936 -23.58526024 0.0
553 1 -48.07661784 -22.99103872 0.0
554 1 -45.44224744 -10.48717528 0.0
555 1 56.36793976 -1.71181552 0.0
556 1 -53.310494376 -4.01236672 0.0
557 1 -50.19473568 -22.80732144 0.0
558 1 -56.134581464 -14.75889384 0.0
559 1 -46.07848816 -25.50296984 0.0
560 1 -56.686737096 -22.39459952 0.0
561 1 55.98626536 -22.08529152 0.0
562 1 -53.810090992 0.20752816 0.0
563 1 -54.4317884 -22.27262712 0.0
564 1 -56.677025992 -23.50460672 0.0
565 1 -55.86172512 -12.32761624 0.0
566 1 -47.552381632 1.29290744 0.0
567 1 -57.083269952 -12.70567232 0.0
568 1 -55.532796488 -20.65955672 0.0
569 1 -55.696017736 -7.36001304 0.0
570 1 -45.59736832 -1.46413568 0.0
571 1 -43.3153756 -14.4312608 0.0
572 1 -55.67024596 -23.05348392 0.0
573 1 -57.986192528 0.86116016 0.0
574 1 54.10975792 -15.92084144 0.0
575 1 -57.497666804 -3.61808656 0.0
576 1 57.4513348 -11.37249648 0.0
577 1 -53.37272948 -16.75480584 0.0
578 1 -56.187117136 -30.38711824 0.0
579 1 -47.493531408 -16.50969384 0.0
580 1 -47.227689936 -26.031478 0.0
581 1 -54.064190432 -17.59939176 0.0
582 1 -57.046596528 -11.56134944 0.0
583 1 -58.039288456 -11.05431776 0.0
584 1 -53.29481888 -2.8427156 0.0
585 1 -47.019729912 -23.56950304 0.0
586 1 -51.669597928 -12.61229632 0.0
587 1 -48.52453084 -13.48792976 0.0
588 1 -54.815318648 -27.07705576 0.0
589 1 -45.44808344 -12.11390192 0.0
590 1 57.47654632 -0.93656128 0.0
591 1 -54.532727856 -24.64262672 0.0
592 1 53.56852728 -24.01117152 0.0
593 1 -53.123649 -19.57604496 0.0
594 1 -50.95172324 -1.71414992 0.0
595 1 54.4837288 -24.68406232 0.0
596 1 -52.163358544 -16.36496104 0.0
597 1 -53.482364576 -6.46523752 0.0
598 1 -47.788739632 -18.04059336 0.0
599 1 -52.078678184 -20.24601776 0.0
600 1 -52.31495448 -4.55278032 0.0
601 1 -49.448824848 -9.26091496 0.0
602 1 -42.2182076 -11.30071368 0.0
603 1 -43.51099832 -4.169822 0.0
604 1 -44.2257916 -29.06176264 0.0
605 1 -50.272891392 -7.31846072 0.0
606 1 -49.164985152 -24.69375008 0.0
607 1 -52.886835792 -18.24310256 0.0
608 1 -57.5994127952 -24.08890704 0.0
609 1 -55.482373448 -21.82979144 0.0
610 1 58.11243688 -5.41592472 0.0
611 1 -48.782563744 -1.73784408 0.0
612 1 56.20394816 -19.29171504 0.0
613 1 -45.90399176 -6.10538976 0.0
614 1 -56.712041992 -25.98747456 0.0
615 1 -55.77272612 -8.51332336 0.0
616 1 57.97225616 -23.35147008 0.0
617 1 -50.55435 -12.3151272 0.0
618 1 57.97202272 -22.22442176 0.0
619 1 -48.247811064 -7.31927776 0.0
620 1 55.72632992 -23.2407028 0.0
621 1 -47.633863864 -29.53086032 0.0
622 1 -47.072802496 -20.1441212 0.0
623 1 57.83954552 -7.9439632 0.0
624 1 -51.539548504 -10.15499016 0.0
625 1 -55.18416552 -14.14798136 0.0
626 1 -54.447160424 -8.1727344 0.0
627 1 -54.10666484 -14.73333216 0.0
628 1 -51.898345784 -14.00593312 0.0
629 1 -50.137858024 -5.78009112 0.0
630 1 -51.309983608 -5.09879648 0.0
631 1 -47.079922416 -6.71922024 0.0
632 1 -46.5292608 -11.0638888 0.0
633 1 -57.4113418592 -16.46522352 0.0
634 1 -50.097309496 -17.81298936 0.0
635 1 -46.836981408 -5.47743616 0.0
636 1 -55.51921028 -5.016042 0.0
637 1 -54.855400296 -12.87970184 0.0
638 1 -53.1446586 -15.58959008 0.0
639 1 -47.989743144 -4.79999328 0.0
640 1 -53.36946132 -21.91698128 0.0
641 1 -49.15797028 -22.36366872 0.0
642 1 -54.033084552 -1.0423096 0.0
643 1 -53.472910256 -25.45919984 0.0
644 1 -51.928237776 -17.67304208 0.0
645 1 -49.153990128 -20.06148344 0.0
646 1 -57.6906423144 -25.2191068 0.0
647 1 -45.49126984 0.00105048 0.0
648 1 -57.7173058312 -21.66171464 0.0
649 1 -51.526055672 -9.02467368 0.0
650 1 -58.3538330054 -17.11196904 0.0
651 1 -46.13778192 -21.8388956 0.0
652 1 -51.39461728 -23.37878256 0.0
653 1 -52.100399776 -15.2255404 0.0
654 1 56.61106752 -12.15253624 0.0
655 1 -51.123955272 -18.49813576 0.0
656 1 -52.244957496 -5.78195864 0.0
657 1 -55.209388712 -15.39326704 0.0
658 1 -56.526165392 -4.32704384 0.0
659 1 -53.543572544 -23.1846772 0.0
660 1 -53.002587016 -1.5827232 0.0
661 1 57.37861824 -27.03865488 0.0
662 1 -54.611315432 -5.8435868 0.0
663 1 -56.806316736 -7.99135152 0.0
664 1 56.7475132 -25.03258824 0.0
665 1 51.9911732 -1.3387784 0.0
666 1 -48.67620848 -0.57939808 0.0
667 1 -48.622178792 -16.037328 0.0
668 1 -47.997528368 -3.67936456 0.0
669 1 -57.107571056 18.22617816 0.0
670 1 55.6129948 1.491098 0.0
671 1 -49.54606428 22.69223552 0.0
672 1 -57.8974001224 3.17548432 0.0
673 1 -48.212059728 4.403262 0.0
674 1 -48.030781896 7.92925648 0.0
675 1 -48.669835568 15.97126448 0.0
676 1 -51.742174424 16.57353968 0.0
677 1 -44.71753296 7.21061144 0.0
678 1 -46.12400896 5.30737512 0.0
679 1 -43.28456152 27.96109304 0.0
680 1 -49.906834128 11.5803748 0.0
681 1 -53.391077864 9.0650588 0.0
682 1 -48.987944256 9.7046844 0.0
683 1 -45.62281328 15.2191208 0.0
684 1 -55.747934792 6.5783392 0.0
685 1 -51.51927424 24.10898288 0.0
686 1 -51.590345048 22.95450536 0.0
687 1 -52.017528576 -2.1511496 0.0
688 1 -50.395342344 19.62448376 0.0
689 1 -44.69185456 27.2996408 0.0
690 1 -51.56578716 20.25547208 0.0
691 1 -56.298748144 13.73724368 0.0
692 1 -52.618694936 4.74315064 0.0
693 1 -43.86827824 5.25741896 0.0
694 1 -50.917209136 26.54306176 0.0
695 1 -47.482419664 2.53842656 0.0
696 1 -45.80349584 24.27239088 0.0
697 1 -50.187650776 8.06395136 0.0
698 1 -51.279858176 7.71705952 0.0
699 1 -49.486058528 20.25990744 0.0
700 1 -54.601464264 26.2520788 0.0
701 1 -43.27580752 16.29773032 0.0
702 1 -52.947786976 12.59011952 0.0
703 1 57.184046 10.82659704 0.0
704 1 -54.10794876 14.46114112 0.0
705 1 -54.7419718 1.06063464 0.0
706 1 -51.003733672 11.24889 0.0
707 1 -55.466137696 9.18633088 0.0
708 1 -45.94496048 26.82879232 0.0
709 1 -54.777524712 22.60586272 0.0
710 1 -46.700675792 24.90583032 0.0
711 1 -49.5704004 16.77336432 0.0
712 1 -53.641909144 24.2538324 0.0
713 1 -49.52149472 17.89621072 0.0
714 1 -57.7918338856 5.66465504 0.0
715 1 -50.562905576 22.19209032 0.0
716 1 -50.808822944 15.93134624 0.0
717 1 -43.69506576 24.4720988 0.0
718 1 -54.097630712 15.73572352 0.0
719 1 -57.6236730472 10.75388048 0.0
720 1 -56.635240232 26.47664808 0.0
721 1 -47.438206128 12.70777328 0.0
722 1 -55.713677472 20.94983936 0.0
723 1 -42.98470784 3.3020088 0.0
724 1 -51.941076976 0.11065056 0.0
725 1 -52.685902312 19.88955488 0.0
726 1 -50.4994916 3.03016792 0.0
727 1 -46.1312456 23.160166 0.0
728 1 -48.680947312 13.58072216 0.0
729 1 -42.56404896 24.71674392 0.0
730 1 -49.149064544 26.6722708 0.0
731 1 -51.249394256 8.84539176 0.0
732 1 -48.417008376 20.67367984 0.0
733 1 -55.669825768 25.91860976 0.0
734 1 -57.9826045552 21.19530152 0.0
735 1 -52.614376296 22.5339632 0.0
736 1 -49.458080744 19.02279216 0.0
737 1 -51.502081384 4.96830352 0.0
738 1 -50.375721712 6.56421608 0.0
739 1 -40.61365776 22.12380912 0.0
740 1 -38.4557384 22.04362248 0.0
741 1 58.2018444 12.70602248 0.0
742 1 -54.648794224 2.23332048 0.0
743 1 -53.520403624 18.03580784 0.0
744 1 -55.83435428 23.2442044 0.0
745 1 -49.5715676 3.69675584 0.0
746 1 -43.09967704 18.82004952 0.0
747 1 -49.836708752 15.46119808 0.0
748 1 -52.31717216 8.29669104 0.0
749 1 -53.080590992 16.22618096 0.0
750 1 -56.048908984 19.86469352 0.0
751 1 -57.6206301568 25.84460928 0.0
752 1 -51.689883864 17.92842544 0.0
753 1 -56.8131682 3.7916492 0.0
754 1 -53.592081376 2.63413696 0.0
755 1 -43.61137752 23.33279488 0.0
756 1 -53.474415944 25.70361152 0.0
757 1 -50.7991702 12.40395112 0.0
758 1 -53.357217392 6.73836232 0.0
759 1 -56.711808552 -5.49354352 0.0
760 1 -47.95867228 10.12522656 0.0
761 1 57.72842808 20.741144 0.0
762 1 -48.225167384 23.4788116 0.0
763 1 -44.19439392 16.97528992 0.0
764 1 -47.70136304 -1.19416232 0.0
765 1 -55.162478944 14.05799024 0.0
766 1 -46.38931352 19.73069896 0.0
767 1 -43.27288952 2.0968748 0.0
768 1 -57.9739287576 22.32725208 0.0
769 1 -45.85555296 6.5468248 0.0
770 1 -56.477283056 12.5637408 0.0
771 1 -44.58984128 14.72994728 0.0
772 1 -48.532677896 14.75901056 0.0
773 1 -51.971949416 11.97278744 0.0
774 1 -50.456970504 4.3367316 0.0
775 1 -53.146444416 26.77650176 0.0
776 1 -56.898082 2.68841176 0.0
777 1 -50.504428856 23.41800048 0.0
778 1 -54.332366304 10.84048672 0.0
779 1 -52.230776016 7.14781608 0.0
780 1 -48.974649848 10.83500088 0.0
781 1 -46.22485504 20.8205136 0.0
782 1 -44.82071344 24.93804504 0.0
783 1 -56.540580312 7.58423216 0.0
784 1 -44.31053032 1.642834 0.0
785 1 -45.1753088 2.49360608 0.0
786 1 -45.2039052 21.33548224 0.0
787 1 -42.83028728 4.5188148 0.0
788 1 -49.682988512 13.1187444 0.0
789 1 -49.632868944 1.42024896 0.0
790 1 -53.969845656 28.49053496 0.0
791 1 -42.8531644 6.98522512 0.0
792 1 -49.57034204 21.56366984 0.0
793 1 -45.2336688 22.45599424 0.0
794 1 -48.460895096 19.55736976 0.0
795 1 -47.632288144 16.61824344 0.0
796 1 -53.268230064 10.17599976 0.0
797 1 -47.8983864 -5.92435704 0.0
798 1 -44.12412848 20.81922968 0.0
799 1 -52.337084592 24.8870384 0.0
800 1 -46.744445792 8.51752528 0.0
801 1 -58.1355637808 16.6028364 0.0
802 1 -53.710785616 19.3486744 0.0
803 1 -49.40273212 23.87227472 0.0
804 1 -49.743472816 14.228168 0.0
805 1 -54.646156352 21.20592304 0.0
806 1 -50.139130272 9.23803784 0.0
807 1 -53.241454496 11.4321404 0.0
808 1 -54.720005096 4.83314176 0.0
809 1 -48.366293536 6.79345416 0.0
810 1 -46.10510032 4.17904288 0.0
811 1 -46.60361144 17.17558144 0.0
812 1 -56.465587712 11.1064916 0.0
813 1 -42.14128912 2.61324408 0.0
814 1 -45.17519208 20.18894168 0.0
815 1 -48.510092576 22.32059904 0.0
816 1 -55.745623736 4.3046336 0.0
817 1 -43.41984 17.73665448 0.0
818 1 -47.527963808 17.87006544 0.0
819 1 -44.88537632 5.90848312 0.0
820 1 -50.268374328 5.46331304 0.0
821 1 -54.666897496 6.0116636 0.0
822 1 -57.514491992 9.3708652 0.0
823 1 -42.1989488 1.48736296 0.0
824 1 -47.651908776 14.02846008 0.0
825 1 -46.923179128 9.60652288 0.0
826 1 -48.492911392 3.27376256 0.0
827 1 -54.9684086 16.53852368 0.0
828 1 -45.03769592 3.6083988 0.0
829 1 -49.092980584 8.58370552 0.0
830 1 -48.589182048 1.8126616 0.0
831 1 -47.994050112 24.77568752 0.0
832 1 -56.87257868 22.83428376 0.0
833 1 -40.63163264 23.37656488 0.0
834 1 -48.925417352 12.11355176 0.0
835 1 -57.7849392352 4.48473256 0.0