ITEM: TIMESTEP
0
ITEM: NUMBER OF ATOMS
9304
ITEM: BOX BOUNDS pp pp pp
-5.8359999999999999e+01 5.8359999999999999e+01
-5.8359999999999999e+01 5.8359999999999999e+01
-5.0000000000000000e-01 5.0000000000000000e-01
ITEM: ATOMS id type xs ys zs c_002[1] c_002[2]
1 1 0.724756 0.786513 0.5 0.448699 -0.194141
2 1 0.994081 0.929503 0.5 -0.0295633 0.720796
3 1 0.386535 0.54902 0.5 -0.352236 -0.119653
4 1 0.641993 0.209761 0.5 -0.471448 0.341718
5 1 0.68996 0.704289 0.5 0.0381835 -0.139232
6 1 0.518358 0.830371 0.5 0.217338 0.0125431
7 1 0.655702 0.620602 0.5 0.301097 0.741099
8 1 0.942109 0.915794 0.5 0.224946 -0.633315
9 1 0.916822 0.850575 0.5 0.4543 -0.227861
10 1 0.555947 0.479268 0.5 0.560517 -0.0942442
11 1 0.897576 0.756865 0.5 -0.0741948 0.335613
12 1 0.64063 0.637039 0.5 0 0
13 1 0.572873 0.422306 0.5 0.00417767 -0.0918446
14 1 0.238151 0.377938 0.5 -0.267581 -0.263831
15 1 0.463262 0.313159 0.5 0.303849 -0.0209352
16 1 0.118625 0.741898 0.5 -0.394078 0.70484
17 1 0.984582 0.106352 0.5 -0.351371 0.00162159
18 1 0.838656 0.586728 0.5 0.298993 0.371415
19 1 0.530691 0.665116 0.5 -0.594972 0.168829
20 1 0.77386 0.369182 0.5 0.207093 -0.779351
21 1 0.854666 0.287758 0.5 -0.42479 0.718903
22 1 0.444237 0.166721 0.5 0.296628 -0.00828299
23 1 0.806243 0.433516 0.5 -0.291139 0.210783
24 1 0.578455 0.701205 0.5 -0.262674 -0.0760054
25 1 0.0555913 0.134481 0.5 0.219283 0.476996
26 1 0.612697 0.552603 0.5 -0.127055 -0.382134
27 1 0.559964 0.335448 0.5 -0.572104 -0.656507
28 1 0.471551 0.817757 0.5 0.526637 -0.3426
29 1 0.394412 0.0389384 0.5 0.0725857 -0.456414
30 1 0.14597 0.447283 0.5 -0.282194 0.131082
31 1 0.394574 0.586447 0.5 -0.479476 -0.282344
32 1 0.227556 0.0995447 0.5 -0.189872 -0.560174
33 1 0.20711 0.859384 0.5 0 0
34 1 0.00780454 0.960944 0.5 0.00951385 -0.191697
35 1 0.337501 0.934047 0.5 -0.0348844 -0.72593
36 1 0.637756 0.987376 0.5 -0.348423 -0.121144
37 1 0.636696 0.918411 0.5 -0.0313479 -0.230063
38 1 0.799909 0.871208 0.5 -0.293416 0.201051
39 1 0.309033 0.236869 0.5 0.477893 0.424489
40 1 0.766779 0.955022 0.5 -0.476637 0.377192
41 1 0.833984 0.333272 0.5 0.384545 0.651738
42 1 0.336687 0.986809 0.5 -0.829777 0.055305
43 1 0.970781 0.731506 0.5 0.177614 0.469069
44 1 0.0636635 0.825512 0.5 0.382357 0.693585
45 1 0.96207 0.494313 0.5 0.810939 0.195252
46 1 0.794467 0.00954591 0.5 -0.811577 0.0546642
47 1 0.749983 0.918157 0.5 -0.616641 -0.43673
48 1 0.75138 0.0926477 0.5 -0.243478 -0.448973
49 1 0.91185 0.00182431 0.5 0.0977536 0.249727
50 1 0.808352 0.729448 0.5 -0.918451 0.0251922
51 1 0.29562 0.624382 0.5 0.558449 0.742423
52 1 0.150282 0.774933 0.5 -0.419393 0.0407957
53 1 0.636962 0.457232 0.5 -0.223521 -0.6292
54 1 0.755453 0.418547 0.5 -0.127039 0.350764
55 1 0.0215976 0.259663 0.5 0.645697 0.435695
56 1 0.157165 0.98976 0.5 -0.742422 -0.524454
57 1 0.964502 0.740055 0.5 -0.133297 0.713969
58 1 0.722955 0.0436958 0.5 -0.414186 0.389204
59 1 0.863828 0.798981 0.5 -0.0825185 0.0856431
60 1 0.617457 0.684742 0.5 0.779054 -0.000182868
61 1 0.942931 0.492617 0.5 -0.0171027 0.19815
62 1 0.439434 0.987322 0.5 0.410598 0.42173
63 1 0.645055 0.620027 0.5 0.270222 0.724328
64 1 0.895728 0.459786 0.5 0.672991 -0.560907
65 1 0.486695 0.266123 0.5 -0.139756 -0.234536
66 1 0.815026 0.673649 0.5 -0.0366171 -0.278945
67 1 0.0284471 0.733597 0.5 0.458962 0.482309
68 1 0.0867317 0.811408 0.5 0.0941832 0.0198644
69 1 0.722987 0.750229 0.5 -0.164377 0.073547
70 1 0.864786 0.73369 0.5 0.750231 0.294177
71 1 0.59641 0.600809 0.5 -0.132896 -0.727532
72 1 0.834908 0.204198 0.5 0.299787 -0.0513194
73 1 0.155956 0.142407 0.5 -0.552151 -0.249129
74 1 0.769332 0.918208 0.5 -0.0898841 -0.293289
75 1 0.0904401 0.840848 0.5 -0.0295258 0.339776
76 1 0.160169 0.393625 0.5 0.278687 -0.0999345
77 1 0.163408 0.847719 0.5 -0.049978 -0.518397
78 1 0.730907 0.777694 0.5 0.356385 -0.0131517
79 1 0.943009 0.56449 0.5 -0.391936 0.470592
80 1 0.793263 0.536777 0.5 0.599129 0.0996061
81 1 0.177268 0.674312 0.5 -0.61759 0.476886
82 1 0.466573 0.946248 0.5 0.4446 0.313902
83 1 0.897875 0.0736224 0.5 0.190826 -0.436693
84 1 0.799567 0.669128 0.5 0.0858031 -0.480734
85 1 0.658206 0.168072 0.5 0.199376 -0.278601
86 1 0.926927 0.167593 0.5 -0.660256 -0.396623
87 1 0.502209 0.742463 0.5 -0.427327 -0.268845
88 1 0.623858 0.884421 0.5 0.623892 -0.603002
89 1 0.670431 0.448483 0.5 0.446066 -0.341052
90 1 0.793174 0.222084 0.5 -0.243253 0.101263
91 1 0.962384 0.91644 0.5 0.456011 -0.357551
92 1 0.841778 0.863517 0.5 0 0
93 1 0.807891 0.708368 0.5 -0.556422 0.186816
94 1 0.584591 0.688545 0.5 0.150498 -0.752695
95 1 0.50576 0.216354 0.5 -0.0384943 -0.0424236
96 1 0.706645 0.842554 0.5 -0.344777 -0.17114
97 1 0.448992 0.873231 0.5 -0.596012 -0.321128
98 1 0.849495 0.0167314 0.5 0.569442 0.141732
99 1 0.323001 0.509286 0.5 0.145391 0.3644
100 1 0.311648 0.450404 0.5 0.528723 0.126855
101 1 0.873189 0.0340702 0.5 0.495332 0.34806
102 1 0.803153 0.880955 0.5 -0.000324216 0.439505
103 1 0.521416 0.287303 0.5 -0.00625275 -0.18423
104 1 0.854817 0.846468 0.5 0.231565 -0.101201
105 1 0.587816 0.167936 0.5 0.543271 -0.00531533
106 1 0.915813 0.35965 0.5 0.017657 -0.458164
107 1 0.0172873 0.279239 0.5 -0.46276 0.0228926
108 1 0.75891 0.351134 0.5 0.102162 0.222166
109 1 0.32933 0.141211 0.5 -0.29644 -0.614152
110 1 0.587843 0.242035 0.5 0.829515 -0.191475
111 1 0.895118 0.912748 0.5 0.0472096 0.380254
112 1 0.453031 0.221857 0.5 0.700647 -0.43586
113 1 0.876491 0.814173 0.5 -0.216082 0.403214
114 1 0.0113062 0.707959 0.5 -0.282963 -0.104146
115 1 0.739497 0.728673 0.5 -0.293347 0.282717
116 1 0.618263 0.982876 0.5 -0.148066 -0.253888
117 1 0.0264874 0.822403 0.5 -0.449697 0.806162
118 1 0.293065 0.319527 0.5 0.201031 -0.710778
119 1 0.359464 0.971654 0.5 0.577304 -0.0256093
120 1 0.395468 0.87107 0.5 0.103876 -0.545021
121 1 0.546031 0.083731 0.5 -0.279869 0.47098
122 1 0.172451 0.845555 0.5 -0.224823 -0.147657
123 1 0.363316 0.724183 0.5 0.0964743 -0.53439
124 1 0.730671 0.188326 0.5 0.195693 -0.384933
125 1 0.166334 0.238177 0.5 -0.0710862 0.930382
126 1 0.729299 0.495064 0.5 0.308629 -0.271822
127 1 0.780907 0.862481 0.5 -0.106614 0.700354
128 1 0.667657 0.0834089 0.5 -0.76856 -0.319894
129 1 0.887163 0.478643 0.5 0.879482 0.196543
130 1 0.423248 0.0448304 0.5 0.293276 0.31811
131 1 0.322845 0.266459 0.5 0.573451 -0.378916
132 1 0.701831 0.88391 0.5 0.307577 -0.107525
133 1 0.744874 0.77921 0.5 -0.0825989 -0.174128
134 1 0.367787 0.93398 0.5 -0.386649 -0.496944
135 1 0.27787 0.138438 0.5 -0.422203 0.0139026
136 1 0.900189 0.903931 0.5 -0.294676 0.345642
137 1 0.667729 0.922879 0.5 0.537096 0.0351438
138 1 0.228357 0.884085 0.5 0.25062 -0.403605
139 1 0.762484 0.874961 0.5 0.0231635 0.214529
140 1 0.307645 0.157099 0.5 -0.434416 -0.815807
141 1 0.78038 0.781295 0.5 0.0818046 0.834216
142 1 0.203177 0.782631 0.5 -0.150074 0.638048
143 1 0.941178 0.732047 0.5 0.0721049 0.0897159
144 1 0.526925 0.912369 0.5 0.203087 -0.31903
145 1 0.678388 0.287881 0.5 0.402045 -0.245534
146 1 0.788769 0.299455 0.5 -0.222152 0.763413
147 1 0.483788 0.955832 0.5 -0.498043 -0.0217061
148 1 0.221092 0.819159 0.5 0.275837 -0.161199
149 1 0.278895 0.332464 0.5 0.670743 0.171447
150 1 0.779508 0.306819 0.5 -0.111886 0.752352
151 1 0.107639 0.898638 0.5 -0.214383 0.0440199
152 1 0.920437 0.139014 0.5 -0.146392 0.150472
153 1 0.490189 0.148805 0.5 0.859472 -0.107434
154 1 0.936579 0.291598 0.5 -0.363727 -0.584639
155 1 0.740711 0.718442 0.5 -0.274582 -0.562131
156 1 0.981916 0.454683 0.5 -0.362395 -0.182083
157 1 0.469271 0.151862 0.5 0.104768 -0.0946412
158 1 0.985518 0.717031 0.5 0.176245 0.249026
159 1 0.373238 0.0062354 0.5 0.717853 -0.036068
160 1 0.130156 0.0827083 0.5 -0.0740528 0.814977
161 1 0.449701 0.265877 0.5 0.730514 0.496058
162 1 0.356592 0.237463 0.5 0.170027 0.367628
163 1 0.311736 0.422045 0.5 0.55558 -0.590543
164 1 0.984053 0.1975 0.5 0.149067 -0.144448
165 1 0.767767 0.848905 0.5 -0.286933 0.264391
166 1 0.718935 0.481752 0.5 -0.753786 0.282074
167 1 0.661185 0.718439 0.5 0.169785 0.317291
168 1 0.623426 0.598458 0.5 -0.784121 -0.425514
169 1 0.0815578 0.612531 0.5 0.238451 0.229112
170 1 0.799586 0.25686 0.5 -0.471341 0.397494
171 1 0.391517 0.151406 0.5 -0.66482 0.0353745
172 1 0.676412 0.957657 0.5 -0.366764 -0.565761
173 1 0.581785 0.3456 0.5 0.833504 -0.0681274
174 1 0.688111 0.432701 0.5 -0.463225 0.241075
175 1 0.485377 0.999695 0.5 -0.245377 -0.0346126
176 1 0.96104 0.927176 0.5 -0.0379204 0.0810043
177 1 0.710704 0.724337 0.5 -0.718603 0.200916
178 1 0.974392 0.679452 0.5 -0.027574 -0.463233
179 1 0.495077 0.928702 0.5 -0.830907 -0.47383
180 1 0.411542 0.607541 0.5 0.295472 0.589398
181 1 0.199564 0.126709 0.5 0.73849 0.388562
182 1 0.573918 0.635172 0.5 -0.0979254 -0.203186
183 1 0.00338466 0.0738932 0.5 0 0
184 1 0.844857 0.973533 0.5 0.468124 -0.784182
185 1 0.656175 0.967602 0.5 -0.0899076 -0.0890287
186 1 0.0135497 0.667676 0.5 -0.44377 0.121532
187 1 0.81484 0.967224 0.5 -0.219224 0.557448
188 1 0.181881 0.513408 0.5 -0.294575 -0.00124444
189 1 0.425384 0.585275 0.5 -0.687437 -0.00539585
190 1 0.69281 0.0108121 0.5 0.240501 0.514707
191 1 0.222211 0.743663 0.5 0.458979 -0.0338414
192 1 0.767922 0.521698 0.5 0.192193 -0.153259
193 1 0.778477 0.424736 0.5 -0.577001 -0.213164
194 1 0.715473 0.848615 0.5 -0.722301 -0.044107
195 1 0.796307 0.766141 0.5 -0.467071 0.681252
196 1 0.243658 0.768992 0.5 0.351547 -0.672243
197 1 0.895749 0.135948 0.5 0.711159 0.0777132
198 1 0.0871927 0.302392 0.5 0.194413 -0.173088
199 1 0.394873 0.808041 0.5 -0.44933 -0.625934
200 1 0.577817 0.167484 0.5 0.124137 0.0846029
201 1 0.503931 0.99294 0.5 0.0442321 -0.358719
202 1 0.270818 0.253658 0.5 -0.0264273 0.213065
203 1 0.805116 0.803326 0.5 -0.186184 -0.192167
204 1 0.139184 0.989443 0.5 -0.602531 0.0188203
205 1 0.911451 0.288534 0.5 0.640764 0.23515
206 1 0.100657 0.202689 0.5 0.177149 -0.0788448
207 1 0.239347 0.0373499 0.5 -0.214142 -0.806535
208 1 0.594812 0.103896 0.5 0 0
209 1 0.767026 0.964659 0.5 -0.160346 -0.472655
210 1 0.378724 0.599526 0.5 0.225912 0.687817
211 1 0.404992 0.768085 0.5 -0.656174 0.0524783
212 1 0.24463 0.892612 0.5 0.0917583 -0.972274
213 1 0.0790907 0.816859 0.5 -0.0419064 -0.234194
214 1 0.430897 0.947416 0.5 0.438911 -0.730017
215 1 0.323503 0.799979 0.5 0.217546 0.220026
216 1 0.695819 0.610415 0.5 0.284681 -0.465342
217 1 0.602985 0.639577 0.5 -0.323605 -0.487963
218 1 0.702041 0.938289 0.5 -0.344209 -0.111216
219 1 0.430257 0.096711 0.5 -0.818671 0.11383
220 1 0.413668 0.752598 0.5 -0.301959 -0.203432
221 1 0.2667 0.914055 0.5 -0.056634 0.764113
222 1 0.0858323 0.952243 0.5 0.0725761 -0.166776
223 1 0.319318 0.840028 0.5 0.742724 -0.342586
224 1 0.732876 0.903219 0.5 -0.504142 -0.788223
225 1 0.188671 0.34492 0.5 -0.159248 0.737724
226 1 0.815052 0.379191 0.5 0.148523 0.290188
227 1 0.473751 0.343855 0.5 -0.170933 0.889527
228 1 0.805703 0.117093 0.5 0.352583 0.512649
229 1 0.758363 0.703948 0.5 0.578151 0.355212
230 1 0.864549 0.0426455 0.5 0.407074 0.741902
231 1 0.441997 0.222535 0.5 0.153816 0.130836
232 1 0.0397764 0.0188206 0.5 -0.218927 0.759038
233 1 0.833562 0.986283 0.5 0.0367432 -0.378557
234 1 0.20554 0.558919 0.5 -0.469752 -0.301134
235 1 0.230028 0.731857 0.5 -0.163724 -0.137841
236 1 0.430968 0.177 0.5 0.348161 -0.00220273
237 1 0.449169 0.112534 0.5 0 0
238 1 0.39248 0.78611 0.5 -0.356039 0.0976547
239 1 0.062991 0.0726135 0.5 -0.791902 0.0599899
240 1 0.715853 0.838891 0.5 -0.549276 0.331041
241 1 0.329768 0.840369 0.5 0.700582 -0.115903
242 1 0.273401 0.0419108 0.5 -0.130201 -0.162966
243 1 0.153589 0.183593 0.5 -0.660161 0.0908298
244 1 0.547629 0.0451711 0.5 -0.72832 -0.352005
245 1 0.455746 0.165081 0.5 0.713153 0.113823
246 1 0.795797 0.100383 0.5 0.167952 0.327288
247 1 0.107986 0.560952 0.5 0.253035 0.853213
248 1 0.295331 0.916972 0.5 -0.245553 0.299062
249 1 0.019067 0.789233 0.5 0.343463 0.494931
250 1 0.62203 0.343057 0.5 0.700806 -0.259774
251 1 0.483796 0.734417 0.5 -0.163832 0.283572
252 1 0.641343 0.890151 0.5 0.746826 0.0134153
253 1 0.879823 0.757413 0.5 0 0
254 1 0.314108 0.618837 0.5 0.409412 0.745028
255 1 0.256849 0.240222 0.5 -0.51973 0.638367
256 1 0.887997 0.697965 0.5 0.0475236 0.205529
257 1 0.633724 0.468971 0.5 0.213029 -0.242888
258 1 0.0706349 0.711737 0.5 0.248003 -0.0842664
259 1 0.430123 0.0863498 0.5 -0.334011 -0.266817
260 1 0.408571 0.262407 0.5 -0.108813 0.269743
261 1 0.882343 0.844942 0.5 -0.438746 -0.281665
262 1 0.798525 0.141616 0.5 0.874576 0.143626
263 1 0.930948 0.0130305 0.5 0.309048 0.302788
264 1 0.936339 0.371977 0.5 0.119755 -0.700535
265 1 0.922804 0.203994 0.5 -0.00829182 0.450696
266 1 0.983444 0.774975 0.5 -0.0341484 -0.468718
267 1 0.43811 0.917099 0.5 -0.191951 0.210696
268 1 0.788251 0.672456 0.5 -0.413417 -0.144574
269 1 0.981653 0.806246 0.5 0.146907 -0.334783
270 1 0.0529295 0.308032 0.5 0.287252 -0.849268
271 1 0.937026 0.946413 0.5 0 0
272 1 0.961355 0.730839 0.5 0.0832127 0.470036
273 1 0.734508 0.768675 0.5 0.522025 -0.46264
274 1 0.526995 0.930126 0.5 0.643864 0.360845
275 1 0.234359 0.895284 0.5 0.327217 -0.441558
276 1 0.915709 0.834488 0.5 0.109313 -0.0313888
277 1 0.0971155 0.249531 0.5 -0.615595 -0.022329
278 1 0.214333 0.773206 0.5 -0.562955 -0.135608
279 1 0.729695 0.294836 0.5 0.790537 0.0348506
280 1 0.653901 0.508774 0.5 0.477716 -0.607089
281 1 0.884716 0.508112 0.5 0.317073 0.679958
282 1 0.322851 0.0620584 0.5 -0.187893 -0.144949
283 1 0.939882 0.874345 0.5 -0.00543734 0.422448
284 1 0.000725052 0.922128 0.5 0.357394 0.64307
285 1 0.100543 0.798559 0.5 0.614166 -0.649378
286 1 0.759511 0.181781 0.5 0.267089 -0.15153
287 1 0.510322 0.67766 0.5 -0.249472 -0.0776915
288 1 0.876361 0.239623 0.5 0 0
289 1 0.106281 0.908605 0.5 -0.686565 -0.0494802
290 1 0.332686 0.80262 0.5 0.258343 0.922658
291 1 0.877981 0.712321 0.5 -0.398048 -0.115662
292 1 0.811398 0.927971 0.5 0.476303 0.2782
293 1 0.875 0.229701 0.5 -0.400154 0.39659
294 1 0.195528 0.730085 0.5 0.0864795 0.181376
295 1 0.0378697 0.250909 0.5 0.484182 0.43773
296 1 0.859773 0.814546 0.5 -0.469751 0.182507
297 1 0.953342 0.860227 0.5 0.199029 -0.429002
298 1 0.763082 0.0705628 0.5 -0.0491063 -0.113366
299 1 0.675558 0.666387 0.5 -0.344296 -0.522708
300 1 0.0808013 0.332962 0.5 0.462134 -0.505908
301 1 0.845047 0.204107 0.5 0.714983 0.169123
302 1 0.25005 0.198009 0.5 -0.417205 0.0784719
303 1 0.11961 0.794242 0.5 -0.397711 -0.272487
304 1 0.380568 0.269343 0.5 0.262443 0.602534
305 1 0.792783 0.271493 0.5 -0.0751256 0.325833
306 1 0.350009 0.970397 0.5 0.587219 0.254628
307 1 0.350373 0.0466537 0.5 0.32519 -0.448828
308 1 0.906205 0.834536 0.5 0.637211 0.580916
309 1 0.188666 0.145046 0.5 0.774077 -0.250321
310 1 0.376819 0.122804 0.5 -0.137899 0.114541
311 1 0.726431 0.0565809 0.5 -0.436329 0.436354
312 1 0.54514 0.949638 0.5 0.792493 0.378479
313 1 0.16829 0.214534 0.5 0.649982 -0.1032
314 1 0.210896 0.223279 0.5 0.467112 0.0141617
315 1 0.827758 0.585249 0.5 0.532414 0.782392
316 1 0.156391 0.0778344 0.5 0.656826 0.30411
317 1 0.895869 0.745642 0.5 -0.460279 0.691444
318 1 0.663994 0.532864 0.5 0.104257 -0.711286
319 1 0.825734 0.424965 0.5 -0.528634 -0.390938
320 1 0.964396 0.816245 0.5 -0.00838305 -0.693837
321 1 0.0641369 0.628905 0.5 0.242879 0.453885
322 1 0.345153 0.225837 0.5 -0.380898 -0.168676
323 1 0.956246 0.287172 0.5 -0.268335 -0.236925
324 1 0.00261398 0.0880006 0.5 -0.160212 -0.515698
325 1 0.776846 0.413432 0.5 0.253866 0.098217
326 1 0.930289 0.428687 0.5 -0.0253988 -0.748015
327 1 0.952122 0.894905 0.5 0.67829 0.312696
328 1 0.576286 0.410832 0.5 -0.170595 -0.272167
329 1 0.636682 0.928193 0.5 -0.171587 0.579042
330 1 0.0680396 0.298377 0.5 0.29999 -0.587048
331 1 0.204505 0.136983 0.5 0.742604 0.550088
332 1 0.821722 0.037165 0.5 -0.370685 -0.788701
333 1 0.910543 0.518165 0.5 0.68486 -0.520406
334 1 0.86592 0.840526 0.5 -0.189309 -0.719732
335 1 0.294375 0.192932 0.5 0.28048 -0.784482
336 1 0.205342 0.736004 0.5 0.00700323 -0.420869
337 1 0.47147 0.0769895 0.5 0.245222 0.0584924
338 1 0.349773 0.0666166 0.5 0.538589 0.450032
339 1 0.061224 0.317142 0.5 0.500125 -0.401459
340 1 0.530722 0.0118181 0.5 -0.309747 0.095149
341 1 0.909015 0.352648 0.5 0.0549743 -0.592274
342 1 0.507981 0.787623 0.5 0.436321 -0.159854
343 1 0.263228 0.935675 0.5 0.000188168 0.110044
344 1 0.637466 0.0321257 0.5 -0.00564756 -0.730971
345 1 0.316682 0.543606 0.5 -0.0167341 0.517
346 1 0.526999 0.0969675 0.5 -0.51922 0.219006
347 1 0.950844 0.0592675 0.5 0.203988 -0.0245479
348 1 0.95698 0.851229 0.5 0.253967 -0.762755
349 1 0.157255 0.84045 0.5 0.0707175 -0.49178
350 1 0.695861 0.874285 0.5 0.191089 0.429389
351 1 0.563442 0.850678 0.5 -0.513967 0.113105
352 1 0.793619 0.450222 0.5 0.277994 0.619165
353 1 0.73336 0.545151 0.5 -0.579272 0.454894
354 1 0.101612 0.375229 0.5 -0.0192296 -0.440902
355 1 0.710538 0.487477 0.5 -0.877703 -0.0330515
356 1 0.650636 0.959231 0.5 0.170669 -0.212128
357 1 0.897341 0.714728 0.5 0 0
358 1 0.846145 0.946161 0.5 0.438703 -0.540739
359 1 0.791325 0.568902 0.5 0.454512 0.462383
360 1 0.946194 0.753275 0.5 -0.461377 0.207526
361 1 0.285481 0.301868 0.5 -0.160616 0.398192
362 1 0.18331 0.203409 0.5 -0.0533998 -0.209331
363 1 0.856657 0.00793842 0.5 0.157811 0.037678
364 1 0.888721 0.753432 0.5 -0.353986 0.232146
365 1 0.0501346 0.601635 0.5 0.196681 0.191993
366 1 0.179922 0.212892 0.5 0.594541 -0.630612
367 1 0.402076 0.998787 0.5 0.527503 0.11047
368 1 0.866447 0.300636 0.5 -0.0974305 0.796101
369 1 0.957953 0.0899272 0.5 -0.459118 0.419834
370 1 0.240136 0.368712 0.5 -0.624664 -0.235442
371 1 0.814912 0.450881 0.5 -0.14533 0.660599
372 1 0.68721 0.633022 0.5 -0.765967 -0.350038
373 1 0.899931 0.56866 0.5 -0.187786 -0.075409
374 1 0.559999 0.525478 0.5 0.499461 -0.732401
375 1 0.406618 0.306692 0.5 -0.394958 0.154828
376 1 0.101504 0.132827 0.5 0.226022 0.805885
377 1 0.697162 0.129146 0.5 0.350749 0.488292
378 1 0.83303 0.366774 0.5 -0.843761 -0.262561
379 1 0.224236 0.893476 0.5 -0.0583397 -0.158618
380 1 0.468235 0.105281 0.5 0.221823 -0.470667
381 1 0.0996448 0.121339 0.5 -0.387424 0.660158
382 1 0.134815 0.473373 0.5 -0.720077 -0.0768522
383 1 0.0983619 0.834119 0.5 -0.191323 0.692028
384 1 0.388816 0.29261 0.5 -0.208633 0.147536
385 1 0.136947 0.93726 0.5 0.50909 -0.509824
386 1 0.798889 0.0456735 0.5 -0.162305 -0.27995
387 1 0.0105398 0.523808 0.5 0.5811 -0.756623
388 1 0.53726 0.764204 0.5 -0.716793 0.321099
389 1 0.834636 0.389594 0.5 0 0
390 1 0.689619 0.549448 0.5 -0.180626 -0.246412
391 1 0.0163652 0.990332 0.5 -0.325029 0.873506
392 1 0.393776 0.330117 0.5 0.14894 0.353786
393 1 0.82727 0.4632 0.5 -0.33647 0.67874
394 1 0.875199 0.118614 0.5 -0.021967 -0.370441
395 1 0.986697 0.599215 0.5 0.128683 0.210066
396 1 0.955291 0.19991 0.5 0.00809368 -0.133527
397 1 0.699379 0.142051 0.5 -0.141552 0.838061
398 1 0.249336 0.514591 0.5 -0.0432639 0.219427
399 1 0.809612 0.209278 0.5 -0.514786 0.398129
400 1 0.562057 0.891267 0.5 0.134521 0.481003
401 1 0.158965 0.892908 0.5 -0.280339 0.3147
402 1 0.203858 0.968258 0.5 -0.0637286 -0.576868
403 1 0.686995 0.156803 0.5 0.41586 0.363963
404 1 0.817107 0.118233 0.5 -0.421609 0.255623
405 1 0.0425099 0.908269 0.5 -0.259137 0.380383
406 1 0.740321 0.347001 0.5 0.615324 0.202966
407 1 0.10174 0.305576 0.5 -0.558357 -0.216147
408 1 0.121618 0.848593 0.5 -0.0280058 0.0751084
409 1 0.956257 0.259594 0.5 0.200096 0.369234
410 1 0.0804371 0.986086 0.5 0.344753 0.136316
411 1 0.802292 0.225691 0.5 -0.678438 0.670321
412 1 0.67225 0.690195 0.5 -0.202436 -0.308072
413 1 0.823516 0.888125 0.5 -0.336905 -0.141922
414 1 0.000571042 0.781295 0.5 0.670194 -0.494787
415 1 0.879959 0.32998 0.5 0.193286 -0.561662
416 1 0.0631028 0.270102 0.5 -0.506365 -0.0949105
417 1 0.91938 0.349866 0.5 0.0148627 -0.590148
418 1 0.755196 0.360332 0.5 0.0802154 0.56212
419 1 0.745761 0.305063 0.5 0.250083 -0.15391
420 1 0.95843 0.00906857 0.5 0.479227 -0.0765134
421 1 0.297186 0.430115 0.5 -0.415986 -0.143861
422 1 0.882772 0.288786 0.5 -0.694669 0.196226
423 1 0.258014 0.176525 0.5 0.0261015 -0.462019
424 1 0.4565 0.29749 0.5 -0.0253907 -0.146245
425 1 0.816803 0.70315 0.5 -0.178004 0.0818638
426 1 0.659616 0.0989759 0.5 -0.124685 0.441642
427 1 0.350987 0.52493 0.5 0.107643 0.16582
428 1 0.321592 0.557722 0.5 0.148239 -0.42892
429 1 0.205344 0.174925 0.5 0.551316 -0.146904
430 1 0.687928 0.246841 0.5 0.84405 -0.113182
431 1 0.715365 0.517931 0.5 -0.370697 -0.0709437
432 1 0.787139 0.763368 0.5 -0.496145 0.27769
433 1 0.0668681 0.887258 0.5 -0.565548 0.559406
434 1 0.80735 0.973737 0.5 -0.223701 0.928774
435 1 0.891917 0.822856 0.5 0.653939 0.565652
436 1 0.92556 0.129802 0.5 0.276523 -0.08884
437 1 0.695054 0.56773 0.5 0.327713 -0.858699
438 1 0.691164 0.488405 0.5 -0.601763 0.348832
439 1 0.664756 0.709077 0.5 0.44075 -0.188615
440 1 0.827083 0.19884 0.5 -0.487515 -0.195297
441 1 0.969166 0.805324 0.5 0.254152 0.418438
442 1 0.160112 0.808148 0.5 -0.644908 0.111392
443 1 0.975938 0.0983919 0.5 -0.789356 -0.151846
444 1 0.480724 0.284443 0.5 0.835976 0.0285061
445 1 0.600676 0.0130477 0.5 -0.218057 0.439926
446 1 0.620878 0.631099 0.5 -0.586347 0.333195
447 1 0.930308 0.732607 0.5 0.759454 0.272527
448 1 0.96261 0.631842 0.5 0.277085 0.212889
449 1 0.708836 0.242185 0.5 -0.184657 0.332369
450 1 0.12968 0.62539 0.5 0.811591 -0.0697174
451 1 0.282923 0.149437 0.5 -0.404007 -0.203853
452 1 0.147184 0.146517 0.5 -0.764505 -0.367952
453 1 0.63378 0.053562 0.5 0.678962 -0.104241
454 1 0.406602 0.317019 0.5 -0.208546 -0.240045
455 1 0.775199 0.842912 0.5 -0.483146 0.80748
456 1 0.552791 0.149749 0.5 0.324054 0.620666
457 1 0.170647 0.692266 0.5 -0.52554 -0.16178
458 1 0.855275 0.0908758 0.5 -0.419265 -0.459894
459 1 0.520067 0.128685 0.5 -0.0321959 -0.523905
460 1 0.332835 0.942589 0.5 0.186745 -0.487744
461 1 0.806745 0.306108 0.5 0.290614 -0.461432
462 1 0.0530729 0.807671 0.5 0.764584 0.199048
463 1 0.253778 0.109851 0.5 -0.201979 -0.875766
464 1 0.852463 0.954693 0.5 0.214683 -0.344484
465 1 0.823271 0.0265436 0.5 -0.44016 -0.223619
466 1 0.525541 0.119777 0.5 0.0644446 -0.258911
467 1 0.88776 0.301617 0.5 -0.493826 0.102348
468 1 0.649844 0.0601538 0.5 -0.181001 -0.482913
469 1 0.514429 0.977288 0.5 0.392572 0.282251
470 1 0.489163 0.318207 0.5 -0.135523 0.0137696
471 1 0.861672 0.856023 0.5 -0.169615 0.372818
472 1 0.122626 0.648355 0.5 0.0631527 -0.640445
473 1 0.293483 0.826929 0.5 0.00256966 -0.833252
474 1 0.495982 0.217182 0.5 0.304961 -0.289455
475 1 0.944637 0.48271 0.5 0.0900927 -0.164383
476 1 0.93113 0.11698 0.5 0.41277 -0.277765
477 1 0.839656 0.0463809 0.5 -0.675147 -0.269416
478 1 0.834298 0.949712 0.5 -0.0511981 -0.639865
479 1 0.28729 0.0725426 0.5 0.433932 -0.207333
480 1 0.919674 0.807865 0.5 0.348346 0.377442
481 1 0.617779 0.74061 0.5 -0.447616 0.350303
482 1 0.0299748 0.6228 0.5 0.59261 0.655951
483 1 0.0458631 0.242719 0.5 0.00932151 0.667517
484 1 0.542999 0.329305 0.5 0.0348809 0.0150847
485 1 0.80029 0.508688 0.5 -0.667226 -0.190738
486 1 0.0621619 0.777724 0.5 0.774589 -0.0737667
487 1 0.615776 0.0587274 0.5 -0.488333 0.375286
488 1 0.855197 0.874974 0.5 0.170249 0.257756
489 1 0.691407 0.579077 0.5 0.000175693 -0.718032
490 1 0.860931 0.894699 0.5 -0.628495 -0.551958
491 1 0.183897 0.00853311 0.5 -0.238212 0.0644168
492 1 0.732588 0.581364 0.5 -0.267788 -0.815082
493 1 0.956606 0.0784867 0.5 -0.478416 0.0286464
494 1 0.485318 0.689099 0.5 -0.820923 -0.0506054
495 1 0.697686 0.481404 0.5 -0.163611 -0.00921781
496 1 0.836157 0.150932 0.5 -0.57349 -0.259021
497 1 0.581035 0.0565325 0.5 -0.134896 -0.388369
498 1 0.707157 0.162762 0.5 0.478617 -0.283934
499 1 0.903406 0.363332 0.5 0.79238 -0.129254
500 1 0.153727 0.223346 0.5 0.0761282 0.275242
501 1 0.0676265 0.101191 0.5 -0.367118 -0.374021
502 1 0.908751 0.882619 0.5 -0.217797 0.163353
503 1 0.956575 0.0681023 0.5 -0.22393 0.0419474
504 1 0.941238 0.936774 0.5 0.489583 0.169576
505 1 0.452692 0.140587 0.5 0.0219433 0.0671682
506 1 0.00344092 0.490296 0.5 0.376715 0.727906
507 1 0.149584 0.69097 0.5 -0.689714 0.538831
508 1 0.826238 0.804403 0.5 -0.565499 -0.474686
509 1 0.920324 0.389463 0.5 -0.113462 0.0958941
510 1 0.648556 0.631324 0.5 0.028425 0.490329
511 1 0.340086 0.501196 0.5 0.444951 -0.414044
512 1 0.00965482 0.836375 0.5 -0.404807 0.634005
513 1 0.314601 0.333958 0.5 0.491991 -0.118816
514 1 0.795288 0.460092 0.5 -0.0224795 0.89801
515 1 0.204104 0.601064 0.5 0.0558376 0.155762
516 1 0.865646 0.547109 0.5 -0.585244 -0.240245
517 1 0.188106 0.239656 0.5 0.877866 0.263987
518 1 0.962375 0.403493 0.5 -0.562066 0.52074
519 1 0.272065 0.31905 0.5 -0.0268181 -0.0747561
520 1 0.636531 0.502409 0.5 0.411565 -0.297942
521 1 0.209351 0.128575 0.5 0.781983 0.33681
522 1 0.508861 0.0690189 0.5 -0.345207 0.179267
523 1 0.252829 0.850559 0.5 -0.108738 -0.531301
524 1 0.622566 0.311186 0.5 0.688016 0.114044
525 1 0.736993 0.40543 0.5 0.227211 0.101869
526 1 0.91099 0.859572 0.5 -0.326613 0.087906
527 1 0.945782 0.00649985 0.5 0.380288 0.622507
528 1 0.41601 0.339387 0.5 0.228335 0.780337
529 1 0.295399 0.520183 0.5 0.244992 -0.596341
530 1 0.0937413 0.62427 0.5 -0.335435 0.568694
531 1 0.1903 0.86286 0.5 0.178695 0.135833
532 1 0.221929 0.561572 0.5 0.301033 0.360332
533 1 0.179632 0.778651 0.5 0.10924 -0.723727
534 1 0.729817 0.722908 0.5 -0.309446 0.230423
535 1 0.057873 0.944979 0.5 -0.805151 -0.355651
536 1 0.398934 0.27499 0.5 -0.0127564 0.195307
537 1 0.992426 0.378291 0.5 0.836341 -0.311559
538 1 0.590591 0.909497 0.5 -0.248876 0.30387
539 1 0.937108 0.827302 0.5 -0.339516 -0.83186
540 1 0.996505 0.109722 0.5 0.463674 0.743967
541 1 0.352668 0.632516 0.5 0.77313 0.575114
542 1 0.769735 0.589282 0.5 -0.285762 -0.794734
543 1 0.217752 0.943745 0.5 -0.108969 -0.519484
544 1 0.120034 0.378815 0.5 0.114035 0.0628287
545 1 0.761977 0.611599 0.5 -0.0411785 0.0956392
546 1 0.890949 0.432574 0.5 -0.929705 -0.230261
547 1 0.975405 0.247854 0.5 0.166385 -0.544674
548 1 0.868692 0.0250945 0.5 0.73551 0.415606
549 1 0.0169969 0.332902 0.5 -0.232022 0.187339
550 1 0.961007 0.164299 0.5 0.138315 0.421929
551 1 0.0101033 0.824866 0.5 -0.23538 0.295896
552 1 0.984559 0.911679 0.5 0.371745 -0.500164
553 1 0.0458589 0.406494 0.5 0.0285546 0.856052
554 1 0.751834 0.545416 0.5 -0.504594 0.120906
555 1 0.998187 0.0522705 0.5 -0.248452 0.311634
556 1 0.503403 0.0256566 0.5 0.102185 0.153116
557 1 0.957852 0.640946 0.5 0 0
558 1 0.661098 0.129243 0.5 -0.725084 0.586469
559 1 0.808591 0.0910775 0.5 0.0384754 -0.61783
560 1 0.255476 0.470431 0.5 -0.496746 -0.0753862
561 1 0.220297 0.653348 0.5 -0.584604 -0.413784
562 1 0.261925 0.338494 0.5 0.212081 0.17511
563 1 0.331043 0.108621 0.5 0.350119 0.53357
564 1 0.921845 0.712863 0.5 0.414421 0.0306584
565 1 0.999082 0.172133 0.5 0.331408 -0.552311
566 1 0.859947 0.691382 0.5 -0.276479 -0.167571
567 1 0.670192 0.36734 0.5 0.0505632 -0.203648
568 1 0.0587077 0.452586 0.5 0.0222355 0.2351
569 1 0.0526882 0.646501 0.5 0.518914 0.675747
570 1 0.0262731 0.973762 0.5 -0.545713 0.118768
571 1 0.0321503 0.487116 0.5 0.581116 0.417368
572 1 0.633436 0.080485 0.5 -0.485845 -0.332969
573 1 0.507303 0.235136 0.5 -0.189075 0.137811
574 1 0.0621744 0.697523 0.5 -0.281649 0.306234
575 1 0.624054 0.904224 0.5 0.337303 0.187675
576 1 0.0416208 0.365855 0.5 0.618107 0.435141
577 1 0.879432 0.102664 0.5 0.181142 0.704712
578 1 0.200393 0.934433 0.5 0.035522 0.571467
579 1 0.566405 0.674795 0.5 -0.41818 0.0668034
580 1 0.734729 0.124568 0.5 0.636241 0.441063
581 1 0.648641 0.202396 0.5 -0.647903 0.0586906
582 1 0.756311 0.0178238 0.5 -0.245952 -0.364716
583 1 0.770499 0.264764 0.5 -0.29191 0.722624
584 1 0.662556 0.302403 0.5 0.409101 -0.277596
585 1 0.0487907 0.448495 0.5 -0.085194 0.0129183
586 1 0.0014566 0.586185 0.5 -0.23621 -0.32684
587 1 0.871684 0.685847 0.5 -0.296967 -0.172775
588 1 0.867787 0.0988255 0.5 0.142618 0.362969
589 1 0.565159 0.163088 0.5 0.32644 0.191477
590 1 0.783754 0.944559 0.5 -0.602816 -0.0871832
591 1 0.941004 0.117038 0.5 0.687288 -0.128797
592 1 0.951831 0.935025 0.5 0.287879 0.207021
593 1 0.643601 0.553606 0.5 -0.835561 -0.207161
594 1 0.329188 0.0391189 0.5 0.159474 -0.446322
595 1 0.613588 0.243369 0.5 0.614923 0.315989
596 1 0.0685759 0.770302 0.5 0.46599 -0.105357
597 1 0.0396171 0.0957903 0.5 -0.231728 0.655711
598 1 0.920861 0.419212 0.5 -0.512817 -0.620686
599 1 0.921298 0.151361 0.5 -0.377209 -0.377699
600 1 0.765722 0.123605 0.5 -0.0948751 -0.0290843
601 1 0.00329466 0.31475 0.5 0 0
602 1 0.781431 0.376014 0.5 0.339002 -0.7994
603 1 0.71892 0.385931 0.5 -0.457344 0.458433
604 1 0.915296 0.947872 0.5 0.279586 0.544735
605 1 0.494227 0.994914 0.5 -0.310554 -0.768761
606 1 0.808992 0.896032 0.5 -0.28228 0.318795
607 1 0.869526 0.20826 0.5 -0.190818 0.207231
608 1 0.157022 0.503918 0.5 0.337302 -0.620487
609 1 0.555881 0.213887 0.5 -0.0868081 -0.0385839
610 1 0.779552 0.19288 0.5 -0.661075 0.382007
611 1 0.47743 0.622149 0.5 -0.52738 0.00821956
612 1 0.414558 0.941801 0.5 0.724892 -0.511609
613 1 0.751231 0.741663 0.5 -0.595332 0.659464
614 1 0.566086 0.259002 0.5 0.658914 -0.262946
615 1 0.397235 0.974538 0.5 -0.62173 0.0833683
616 1 0.82266 0.549142 0.5 0.554707 0.274334
617 1 0.745617 0.144176 0.5 0.901268 0.307309
618 1 0.597367 0.931109 0.5 0.466379 -0.160358
619 1 0.242783 0.521549 0.5 0.216146 0.257122
620 1 0.282589 0.793355 0.5 -0.715251 -0.491981
621 1 0.368848 0.443848 0.5 0.115742 0.173105
622 1 0.768842 0.218882 0.5 0.395893 0.477713
623 1 0.463631 0.849077 0.5 0.50771 -0.504524
624 1 0.916348 0.442233 0.5 -0.253867 -0.892627
625 1 0.697064 0.968755 0.5 0.218674 0.111861
626 1 0.228437 0.969072 0.5 0.574835 -0.00286636
627 1 0.411851 0.234471 0.5 0.657857 -0.495695
628 1 0.903547 0.380181 0.5 0.364367 -0.551395
629 1 0.689512 0.00171636 0.5 0.425847 0.725963
630 1 0.862875 0.632588 0.5 0.486318 0.654303
631 1 0.125101 0.353316 0.5 0.57472 -0.395789
632 1 0.709817 0.599791 0.5 -0.0132191 -0.54616
633 1 0.570337 0.250216 0.5 0.507787 -0.358181
634 1 0.922142 0.501927 0.5 -0.181699 -0.431254
635 1 0.230512 0.988747 0.5 0.172561 -0.573196
636 1 0.6403 0.435966 0.5 -0.0491011 -0.619618