ITEM: TIMESTEP
0
ITEM: NUMBER OF ATOMS
9304
ITEM: BOX BOUNDS pp pp pp
-5.8359999999999999e+01 5.8359999999999999e+01
-5.8359999999999999e+01 5.8359999999999999e+01
-5.0000000000000000e-01 5.0000000000000000e-01
ITEM: ATOMS id type xs ys zs c_002[1] c_002[2]
1 1 0.866801 0.830446 0.5 0.160541 -0.574142
2 1 0.0940537 0.016859 0.5 0.269754 -0.497271
3 1 0.714352 0.414207 0.5 0.561862 0.096779
4 1 0.903783 0.0403202 0.5 -0.328385 -0.0280958
5 1 0.932928 0.987436 0.5 -0.437515 0.526864
6 1 0.683107 0.898476 0.5 0.494545 -0.221398
7 1 0.0091835 0.0452378 0.5 0.804986 0.282727
8 1 0.00730998 0.0643585 0.5 0.147136 -0.218851
9 1 0.890767 0.111063 0.5 -0.366081 -0.287494
10 1 0.881911 0.633304 0.5 -0.669654 -0.380854
11 1 0.871609 0.766884 0.5 -0.636137 -0.175391
12 1 0.709864 0.888937 0.5 -0.521185 -0.360738
13 1 0.719622 0.796256 0.5 -0.346422 0.324782
14 1 0.814226 0.194009 0.5 0.135955 0.0339997
15 1 0.94239 0.415086 0.5 0.0594434 0.589655
16 1 0.896917 0.915115 0.5 -0.278935 -0.0632295
17 1 0.16231 0.208845 0.5 -0.207353 0.466755
18 1 0.951008 0.762547 0.5 -0.205681 0.39852
19 1 0.93742 0.633416 0.5 0.736674 0.198127
20 1 0.836092 0.700722 0.5 0.322213 -0.305522
21 1 0.368404 0.157813 0.5 0.43933 0.25941
22 1 0.749554 0.0510313 0.5 -0.00335392 -0.332008
23 1 0.932438 0.40135 0.5 -0.351807 -0.125367
24 1 0.588329 0.835368 0.5 -0.582075 -0.464066
25 1 0.322652 0.345775 0.5 0.446595 -0.673279
26 1 0.941174 0.0721957 0.5 -0.609573 0.445916
27 1 0.877405 0.849997 0.5 0.010504 0.151658
28 1 0.594739 0.015495 0.5 -0.925281 -0.00166359
29 1 0.447582 0.214679 0.5 0.117146 -0.113004
30 1 0.438582 0.68535 0.5 0.432017 0.126618
31 1 0.245164 0.810583 0.5 -0.126152 -0.193845
32 1 0.242924 0.145944 0.5 -0.27785 -0.817527
33 1 0.347872 0.972465 0.5 -0.0366815 -0.24936
34 1 0.861355 0.940919 0.5 0.355965 0.686788
35 1 0.39523 0.981497 0.5 -0.532358 0.474293
36 1 0.795921 0.82197 0.5 -0.553738 0.698283
37 1 0.698825 0.0163889 0.5 -0.00434567 0.729542
38 1 0.78597 0.108635 0.5 -0.0861966 -0.389914
39 1 0.505213 0.137797 0.5 0.0259344 -0.240249
40 1 0.843336 0.201075 0.5 -0.545522 -0.294492
41 1 0.162945 0.292089 0.5 -0.274803 -0.296935
42 1 0.641275 0.897481 0.5 0.373524 0.281968
43 1 0.0876542 0.829882 0.5 0.481632 0.834656
44 1 0.479585 0.795837 0.5 -0.0151248 0.675319
45 1 0.0136001 0.714573 0.5 0.385808 -0.583433
46 1 0.806531 0.102504 0.5 -0.301881 -0.861468
47 1 0.907153 0.192785 0.5 0.631912 -0.329255
48 1 0.913314 0.147914 0.5 0.479067 0.0254374
49 1 0.0918924 0.345673 0.5 0.117383 -0.574118
50 1 0.812894 0.983269 0.5 -0.096246 -0.785397
51 1 0.384081 0.711547 0.5 -0.183177 -0.484401
52 1 0.106893 0.866514 0.5 -0.22791 0.336208
53 1 0.710302 0.545751 0.5 -0.261665 0.152779
54 1 0.790127 0.717647 0.5 -0.227629 0.79412
55 1 0.0118055 0.313199 0.5 -0.537714 -0.414739
56 1 0.198107 0.128654 0.5 0.595142 0.724439
57 1 0.765641 0.86119 0.5 0.255388 0.298582
58 1 0.581104 0.902415 0.5 -0.0882668 -0.0407925
59 1 0.00935715 0.99017 0.5 0.140707 0.879032
60 1 0.775659 0.829798 0.5 0.00704901 0.467956
61 1 0.0706056 0.835663 0.5 -0.111974 0.155662
62 1 0.683487 0.118608 0.5 0.332385 -0.469172
63 1 0.861562 0.894727 0.5 0 0
64 1 0.271279 0.572748 0.5 -0.597707 -0.507252
65 1 0.800576 0.263996 0.5 0.907678 0.124147
66 1 0.112087 0.134326 0.5 0.219345 -0.223151
67 1 0.869769 0.776296 0.5 0.321341 0.0557445
68 1 0.338784 0.0894843 0.5 -0.378368 0.238997
69 1 0.867527 0.712221 0.5 0.433712 -0.177846
70 1 0.997398 0.0226727 0.5 -0.00796724 -0.337999
71 1 0.62251 0.724343 0.5 -0.344445 -0.48329
72 1 0.895898 0.0973641 0.5 0.283826 -0.676811
73 1 0.465128 0.162327 0.5 0.114381 0.239559
74 1 0.744641 0.979276 0.5 -0.235876 0.0549433
75 1 0.971752 0.97865 0.5 0.409298 0.128591
76 1 0.319735 0.325874 0.5 0.490849 -0.706428
77 1 0.667345 0.928142 0.5 -0.28452 -0.158282
78 1 0.685599 0.0128265 0.5 -0.180512 0.273075
79 1 0.914277 0.797085 0.5 0.232047 0.0578796
80 1 0.704486 0.825041 0.5 0.779646 -0.469542
81 1 0.362788 0.808172 0.5 -0.442809 0.374197
82 1 0.660275 0.986605 0.5 -0.0106939 0.0989272
83 1 0.104771 0.14625 0.5 -0.536708 -0.0628681
84 1 0.779916 0.853375 0.5 -0.0419957 -0.533761
85 1 0.90073 0.133274 0.5 0.0742466 0.373228
86 1 0.854677 0.397151 0.5 -0.719079 -0.598661
87 1 0.758636 0.836934 0.5 0.354848 0.695992
88 1 0.602246 0.974461 0.5 -0.116177 -0.913567
89 1 0.125521 0.568691 0.5 -0.0953998 0.197636
90 1 0.924513 0.075602 0.5 -0.525203 0.22225
91 1 0.936613 0.193708 0.5 -0.482115 -0.00339046
92 1 0.204599 0.120981 0.5 0.60801 0.069848
93 1 0.0954107 0.706241 0.5 0.451958 -0.584723
94 1 0.856558 0.71248 0.5 0.541302 0.437604
95 1 0.850754 0.577376 0.5 0.603181 0.17824
96 1 0.971284 0.113466 0.5 -0.48488 0.346878
97 1 0.526654 0.954613 0.5 -0.0230259 0.186797
98 1 0.0561329 0.0649832 0.5 -0.251323 0.374563
99 1 0.178029 0.823898 0.5 0.272366 -0.247354
100 1 0.367511 0.337558 0.5 -0.550932 -0.690759
101 1 0.014453 0.034223 0.5 0.052991 -0.174474
102 1 0.713707 0.0908784 0.5 0.0333933 0.647614
103 1 0.787014 0.643406 0.5 -0.408445 -0.0690711
104 1 0.955992 0.0869678 0.5 -0.215632 0.448396
105 1 0.847131 0.22667 0.5 0.122595 -0.255557
106 1 0.957825 0.333785 0.5 0.333169 -0.215567
107 1 0.254879 0.741543 0.5 -0.221243 0.428705
108 1 0.0846326 0.420736 0.5 0.795729 0.22223
109 1 0.26951 0.217135 0.5 0.591165 -0.447192
110 1 0.741191 0.281909 0.5 0.815829 -0.0802805
111 1 0.0473936 0.122082 0.5 -0.314955 -0.171811
112 1 0.484159 0.983508 0.5 -0.215153 -0.251972
113 1 0.029094 0.18401 0.5 -0.172813 0.354499
114 1 0.000857385 0.00952807 0.5 -0.0645595 0.0711399
115 1 0.905553 0.911074 0.5 -0.631001 -0.326165
116 1 0.675061 0.944204 0.5 -0.474586 -0.316461
117 1 0.29706 0.77442 0.5 -0.499953 0.395034
118 1 0.555798 0.334608 0.5 0.821848 -0.21532
119 1 0.421126 0.186393 0.5 0.170963 0.34505
120 1 0.644974 0.699637 0.5 -0.114638 -0.343971
121 1 0.702467 0.962537 0.5 -0.546494 -0.755482
122 1 0.0654794 0.911344 0.5 -0.202236 0.434425
123 1 0.425521 0.854223 0.5 0.342226 0.285132
124 1 0.736922 0.183025 0.5 0.0271902 -0.517717
125 1 0.208311 0.180012 0.5 -0.107585 0.649356
126 1 0.933497 0.472442 0.5 -0.478253 -0.682332
127 1 0.796296 0.105319 0.5 -0.132611 -0.794468
128 1 0.731127 0.174044 0.5 0.18672 -0.0604073
129 1 0.916654 0.740227 0.5 -0.735461 -0.338977
130 1 0.798697 0.427843 0.5 0.479366 0.378845
131 1 0.493448 0.0981358 0.5 -0.577593 0.0999456
132 1 0.975975 0.0806078 0.5 -0.0520963 -0.113787
133 1 0.790104 0.917724 0.5 -0.375249 0.411913
134 1 0.486432 0.0808436 0.5 -0.642331 0.228767
135 1 0.191307 0.136378 0.5 0.308492 0.754093
136 1 0.124226 0.124334 0.5 0.174281 -0.221996
137 1 0.600125 0.0334583 0.5 0.706423 -0.541424
138 1 0.405524 0.997501 0.5 -0.061296 -0.279163
139 1 0.846802 0.771732 0.5 0.773873 0.278685
140 1 0.505995 0.04006 0.5 -0.208406 -0.0181472
141 1 0.950513 0.133949 0.5 -0.208285 0.824156
142 1 0.942374 0.769152 0.5 -0.700852 0.119844
143 1 0.116113 0.842301 0.5 0.128873 0.394271
144 1 0.710528 0.141487 0.5 0.0349075 -0.717717
145 1 0.917392 0.580928 0.5 -0.279899 0.904214
146 1 0.767465 0.257001 0.5 -0.0248775 0.364388
147 1 0.541596 0.081758 0.5 -0.121177 -0.0456003
148 1 0.242521 0.920487 0.5 0.51239 -0.688317
149 1 0.589342 0.339404 0.5 0.385026 0.691455
150 1 0.847202 0.274208 0.5 0.0387561 -0.190731
151 1 0.16105 0.894499 0.5 0.0566664 0.275064
152 1 0.0304928 0.0969323 0.5 -0.477732 -0.0916616
153 1 0.816184 0.203193 0.5 0.0789333 0.170453
154 1 0.807835 0.033431 0.5 -0.00461056 -0.110958
155 1 0.774282 0.944103 0.5 -0.0725641 -0.152135
156 1 0.189555 0.35483 0.5 0.0203367 0.116628
157 1 0.613274 0.0707029 0.5 -0.173989 0.379945
158 1 0.184476 0.834848 0.5 -0.134082 -0.615607
159 1 0.537206 0.150824 0.5 -0.0146901 -0.246786
160 1 0.0769287 0.127052 0.5 -0.820105 -0.417151
161 1 0.78456 0.538745 0.5 -0.631266 0.31818
162 1 0.774524 0.992953 0.5 -0.202349 -0.872863
163 1 0.277897 0.700659 0.5 -0.268563 -0.56703
164 1 0.128771 0.0980174 0.5 0.255225 -0.116949
165 1 0.731245 0.942039 0.5 -0.880412 0.309105
166 1 0.0612766 0.73001 0.5 0.181333 0.529133
167 1 0.0585842 0.875449 0.5 0.827628 -0.282706
168 1 0.72062 0.88487 0.5 0.0293697 -0.117084
169 1 0.24882 0.927783 0.5 0.808124 -0.361557
170 1 0.794071 0.472103 0.5 -0.543364 -0.0692996
171 1 0.51174 0.100162 0.5 -0.0368057 -0.393773
172 1 0.744919 0.0209922 0.5 -0.457552 -0.275118
173 1 0.370608 0.65667 0.5 -0.591662 -0.264647
174 1 0.0538139 0.212563 0.5 0.0194887 0.725166
175 1 0.906469 0.986224 0.5 0.30511 -0.139774
176 1 0.772946 0.0296746 0.5 0.0514717 -0.242153
177 1 0.0100762 0.0121378 0.5 0.465183 -0.188757
178 1 0.0294185 0.976854 0.5 -0.554138 -0.168983
179 1 0.827498 0.804971 0.5 -0.443997 0.332204
180 1 0.424726 0.8017 0.5 -0.672437 -0.329137
181 1 0.22935 0.109174 0.5 -0.584465 0.479759
182 1 0.832052 0.633004 0.5 -0.441468 0.198292
183 1 0.985789 0.0961636 0.5 -0.61531 -0.425571
184 1 0.723874 0.0193916 0.5 0.0899756 -0.227214
185 1 0.670615 0.120797 0.5 0.0705995 -0.709077
186 1 0.0373695 0.983511 0.5 -0.181585 -0.725791
187 1 0.975052 0.207396 0.5 0.538589 0.252067
188 1 0.163137 0.541162 0.5 -0.24452 0.817274
189 1 0.635074 0.669352 0.5 -0.567875 -0.591355
190 1 0.610887 0.173847 0.5 0.159888 -0.397885
191 1 0.407347 0.849906 0.5 0.151973 0.184439
192 1 0.888635 0.121564 0.5 -0.227312 -0.596729
193 1 0.998724 0.905809 0.5 0.356719 0.0543156
194 1 0.025856 0.674288 0.5 0.528345 0.346501
195 1 0.916104 0.763141 0.5 -0.375063 -0.225913
196 1 0.249073 0.825212 0.5 0.016434 0.816313
197 1 0.984602 0.125814 0.5 0.525434 0.424119
198 1 0.244966 0.474339 0.5 -0.639769 -0.0314484
199 1 0.622699 0.814547 0.5 0.202813 0.367744
200 1 0.839414 0.626822 0.5 -0.370924 0.103403
201 1 0.634651 0.165166 0.5 0.326355 -0.545935
202 1 0.745368 0.422881 0.5 -0.304534 -0.252903
203 1 0.942179 0.140372 0.5 -0.0997839 -0.0253937
204 1 0.295292 0.942894 0.5 0.566731 0.381477
205 1 0.965689 0.497536 0.5 0.321781 0.46785
206 1 0.388083 0.241205 0.5 0.188368 -0.657274
207 1 0.528126 0.941551 0.5 -0.638812 -0.0755032
208 1 0.764898 0.0238987 0.5 -0.579069 -0.362755
209 1 0.791129 0.00294858 0.5 -0.0570502 0.793499
210 1 0.396777 0.929677 0.5 0.487923 -0.0674466
211 1 0.519668 0.747978 0.5 0.235223 -0.294319
212 1 0.474666 0.053341 0.5 -0.220536 -0.0950485
213 1 0.0943662 0.952194 0.5 -0.238643 0.248148
214 1 0.722542 0.905265 0.5 -0.943388 0.169564
215 1 0.344866 0.00300297 0.5 0.1686 -0.505601
216 1 0.963477 0.896964 0.5 0.0755979 0.253597
217 1 0.836608 0.711534 0.5 -0.277291 -0.700168
218 1 0.67059 0.028308 0.5 -0.715745 0.151391
219 1 0.832553 0.289627 0.5 0.0323345 -0.293146
220 1 0.511118 0.679751 0.5 0.574955 -0.0661168
221 1 0.505314 0.823146 0.5 0.456942 0.11612
222 1 0.215471 0.053895 0.5 -0.289935 -0.412762
223 1 0.388238 0.919884 0.5 -0.252039 -0.592024
224 1 0.870308 0.0638492 0.5 0.48626 0.057784
225 1 0.368581 0.546268 0.5 -0.624387 0.0238957
226 1 0.930456 0.330028 0.5 0.148878 -0.472004
227 1 0.961304 0.108595 0.5 -0.116067 0.49158
228 1 0.0645519 0.991099 0.5 0.595804 -0.253557
229 1 0.00142755 0.0975402 0.5 -0.607529 -0.50083
230 1 0.165812 0.224094 0.5 0.205417 -0.100898
231 1 0.708416 0.719888 0.5 -0.346775 0.530834
232 1 0.328335 0.908401 0.5 -0.478484 0.0565706
233 1 0.666161 0.0811556 0.5 -0.571349 -0.154666
234 1 0.246103 0.319913 0.5 -0.395126 0.751889
235 1 0.0485635 0.839252 0.5 0.696514 -0.510598
236 1 0.526611 0.108669 0.5 0.413851 -0.494288
237 1 0.6243 0.971653 0.5 0.477979 -0.560436
238 1 0.740601 0.937184 0.5 -0.667791 0.515862
239 1 0.134005 0.16116 0.5 0.678981 -0.497493
240 1 0.50404 0.0491482 0.5 -0.541885 -0.124003
241 1 0.702848 0.941737 0.5 -0.447261 0.225574
242 1 0.448654 0.064217 0.5 -0.134323 0.0681322
243 1 0.144899 0.00374523 0.5 -0.828831 0.137745
244 1 0.592623 0.976979 0.5 0.179002 -0.945708
245 1 0.517532 0.0455407 0.5 -0.410384 -0.360812
246 1 0.950195 0.0150516 0.5 -0.00275786 0.369136
247 1 0.240432 0.122167 0.5 -0.392478 0.669856
248 1 0.53145 0.801859 0.5 -0.338537 -0.499571
249 1 0.0305066 0.934921 0.5 0.592363 0.13998
250 1 0.735467 0.737621 0.5 -0.875641 0.281381
251 1 0.486377 0.735166 0.5 0.317688 0.590457
252 1 0.673058 0.873947 0.5 -0.589189 -0.28896
253 1 0.824364 0.0672468 0.5 0.261395 -0.308128
254 1 0.504347 0.922894 0.5 0.365363 -0.830792
255 1 0.730479 0.2025 0.5 -0.0513506 -0.802512
256 1 0.933447 0.864369 0.5 -0.366645 -0.552572
257 1 0.641459 0.640758 0.5 0.712034 0.21833
258 1 0.294228 0.925873 0.5 0.806656 -0.167428
259 1 0.774407 0.480648 0.5 -0.158892 0.601113
260 1 0.781103 0.416075 0.5 -0.380449 0.0966994
261 1 0.0101277 0.914833 0.5 0.448881 -0.0394037
262 1 0.746206 0.0874497 0.5 0.319496 -0.582786
263 1 0.0649758 0.190772 0.5 0.509628 -0.455008
264 1 0.0146267 0.301181 0.5 -0.0280293 -0.0902065
265 1 0.0471821 0.898432 0.5 0.143128 0.694626
266 1 0.905611 0.921692 0.5 -0.586032 -0.229701
267 1 0.628853 0.767368 0.5 0.687414 0.432691
268 1 0.921343 0.810352 0.5 -0.22263 0.238196
269 1 0.211374 0.802714 0.5 -0.179871 -0.65789
270 1 0.315495 0.376386 0.5 -0.00272509 -0.709205
271 1 0.232253 0.0878007 0.5 -0.504834 -0.0595484
272 1 0.0922213 0.0649592 0.5 -0.60852 0.295797
273 1 0.871762 0.732608 0.5 0.290659 -0.0562141
274 1 0.566885 0.851431 0.5 -0.0831135 -0.764662
275 1 0.590991 0.76038 0.5 0.56914 -0.510386
276 1 0.110609 0.0587567 0.5 -0.412493 0.353914
277 1 0.150535 0.109232 0.5 -0.163111 0.388735
278 1 0.0983123 0.00700307 0.5 0.048623 -0.222954
279 1 0.0830547 0.306962 0.5 0.0872752 0.391084
280 1 0.950399 0.748052 0.5 -0.44573 0.40879
281 1 0.824302 0.972214 0.5 0.548479 -0.399277
282 1 0.641 0.918335 0.5 0.508489 -0.390224
283 1 0.306114 0.989567 0.5 -0.499583 0.0414266
284 1 0.896194 0.985802 0.5 0.0713022 -0.179259
285 1 0.975019 0.00382181 0.5 -0.293655 -0.156654
286 1 0.827182 0.503678 0.5 0.510925 -0.71539
287 1 0.867616 0.840166 0.5 0.0113359 -0.166783
288 1 0.549707 0.230553 0.5 0.0420822 -0.623304
289 1 0.494557 0.881932 0.5 -0.131202 0.00691418
290 1 0.489127 0.717838 0.5 0.60081 -8.73923e-06
291 1 0.98566 0.686918 0.5 -0.398049 -0.0711187
292 1 0.992646 0.103285 0.5 -0.556275 -0.549495
293 1 0.0451143 0.364284 0.5 -0.281081 0.630718
294 1 0.0809801 0.429448 0.5 0.649247 0.285776
295 1 0.0569081 0.534903 0.5 -0.475139 0.560099
296 1 0.875881 0.0523736 0.5 0.428162 -0.495279
297 1 0.961286 0.0185705 0.5 -0.0940866 -0.202189
298 1 0.146296 0.335794 0.5 0.0797141 0.471238
299 1 0.0391089 0.102126 0.5 -0.288892 0.223207
300 1 0.36369 0.281565 0.5 0.0650208 -0.0756769
301 1 0.823066 0.262716 0.5 0.737535 -0.486302
302 1 0.36736 0.0972652 0.5 -0.202642 -0.445327
303 1 0.265761 0.0392159 0.5 0.649175 -0.625552
304 1 0.212293 0.194374 0.5 0.177716 -0.342592
305 1 0.0717153 0.171456 0.5 0.202978 -0.110594
306 1 0.486114 0.0714518 0.5 -0.757073 0.490931
307 1 0.712343 0.199578 0.5 0.0926094 -0.757835
308 1 0.835159 0.0335613 0.5 -0.549282 0.00165821
309 1 0.183713 0.142936 0.5 0.0833246 -0.0908947
310 1 0.717738 0.099477 0.5 0.529381 0.391511
311 1 0.923303 0.0342218 0.5 -0.39046 -0.296823
312 1 0.663853 0.953463 0.5 0.614696 0.31006
313 1 0.0638224 0.226607 0.5 -0.223201 0.583243
314 1 0.788042 0.380541 0.5 -0.533605 -0.0078745
315 1 0.0272162 0.762605 0.5 -0.172746 0.658626
316 1 0.311192 0.249291 0.5 -0.410364 0.0868283
317 1 0.0253823 0.130091 0.5 -0.42115 -0.706114
318 1 0.208034 0.535721 0.5 -0.407468 -0.399763
319 1 0.284993 0.307242 0.5 0.590449 -0.485577
320 1 0.087483 0.960247 0.5 0.461149 0.133277
321 1 0.144084 0.679007 0.5 0.633841 0.13032
322 1 0.844249 0.366788 0.5 0.311409 -0.187718
323 1 0.216507 0.241451 0.5 -0.329672 -0.759134
324 1 0.211724 0.328354 0.5 -0.261175 -0.21331
325 1 0.204059 0.362007 0.5 -0.108502 -0.0380664
326 1 0.0298071 0.388439 0.5 -0.418297 0.0599018
327 1 0.0336185 0.994911 0.5 -0.294442 -0.658765
328 1 0.641918 0.218066 0.5 0.0840371 0.343851
329 1 0.704035 0.872091 0.5 -0.00552067 -0.820848
330 1 0.251351 0.368612 0.5 -0.218813 0.830807
331 1 0.48639 0.971444 0.5 -0.186342 0.107703
332 1 0.878356 0.392208 0.5 -0.0995577 0.032336
333 1 0.985643 0.952639 0.5 -0.396312 0.2498
334 1 0.861614 0.0727481 0.5 0.249474 0.328644
335 1 0.486774 0.172864 0.5 -0.65605 -0.184549
336 1 0.0794743 0.876237 0.5 0.412005 0.539922
337 1 0.683988 0.220036 0.5 0.223582 -0.0574771
338 1 0.591821 0.077447 0.5 0.0977632 -0.557526
339 1 0.192187 0.2481 0.5 0.700513 0.243256
340 1 0.633127 0.681184 0.5 -0.340551 -0.417232
341 1 0.191767 0.581023 0.5 0.145058 0.53173
342 1 0.782141 0.884669 0.5 -0.3113 0.719115
343 1 0.408021 0.0366058 0.5 -0.227468 -0.289585
344 1 0.784284 0.048692 0.5 0.342634 -0.537992
345 1 0.382461 0.389949 0.5 0.220985 -0.235258
346 1 0.706627 0.230538 0.5 -0.352615 -0.56432
347 1 0.136296 0.255653 0.5 -0.112623 -0.132839
348 1 0.085453 0.134202 0.5 -0.508875 -0.718698
349 1 0.083937 0.819868 0.5 0.0700807 0.273552
350 1 0.928627 0.0949381 0.5 0.0420077 -0.232504
351 1 0.638679 0.838364 0.5 0.0315639 -0.55015
352 1 0.113435 0.354953 0.5 -0.540801 -0.522155
353 1 0.134105 0.725492 0.5 -0.370196 -0.0384019
354 1 0.241598 0.375117 0.5 -0.455403 0.113141
355 1 0.158025 0.279744 0.5 0.209112 0.0717306
356 1 0.828698 0.918554 0.5 0.34241 0.419401
357 1 0.0126605 0.114098 0.5 -0.201898 -0.12988
358 1 0.427053 0.0282177 0.5 0.64942 -0.151873
359 1 0.694257 0.0347975 0.5 0.451198 0.209485
360 1 0.921649 0.0537314 0.5 -0.906347 0.408607
361 1 0.253559 0.50545 0.5 -0.244542 0.809487
362 1 0.120763 0.0640611 0.5 0.030312 0.324295
363 1 0.136325 0.019743 0.5 -0.371458 0.288209
364 1 0.916609 0.00247689 0.5 -0.166492 0.199582
365 1 0.208124 0.811515 0.5 -0.0081765 0.177807
366 1 0.942797 0.114288 0.5 0.511589 0.638925
367 1 0.355513 0.99658 0.5 0 0
368 1 0.842232 0.292833 0.5 0.141373 0.781454
369 1 0.879933 0.945487 0.5 -0.00357123 0.885593
370 1 0.277232 0.539217 0.5 -0.833904 -0.0440161
371 1 0.121677 0.384729 0.5 -0.527926 -0.0755523
372 1 0.0877812 0.800806 0.5 0.588615 -0.40359
373 1 0.983666 0.769118 0.5 -0.0405813 0.657076
374 1 0.688905 0.578178 0.5 0.583419 -0.225959
375 1 0.00905299 0.184666 0.5 -0.397254 0.346449
376 1 0.261319 0.148222 0.5 -0.325568 0.156608
377 1 0.922345 0.0631677 0.5 -0.710474 0.58802
378 1 0.191149 0.264596 0.5 -0.278034 0.249989
379 1 0.0990474 0.0476199 0.5 0.149046 0.328582
380 1 0.647745 0.0594105 0.5 -0.316609 -0.473531
381 1 0.342175 0.0720819 0.5 0.482515 0.47218
382 1 0.210023 0.823607 0.5 0.234751 0.217484
383 1 0.163015 0.0742337 0.5 -0.768557 0.182875
384 1 0.246643 0.296898 0.5 -0.0113697 0.267916
385 1 0.197596 0.955512 0.5 -0.679192 0.568855
386 1 0.747473 0.190822 0.5 -0.0227287 -0.0878366
387 1 0.112415 0.459658 0.5 -0.0648708 -0.0180515
388 1 0.948605 0.604244 0.5 0.875305 0.172746
389 1 0.788257 0.507766 0.5 0.228452 0.553843
390 1 0.924813 0.393199 0.5 0.055319 -0.412472
391 1 0.166864 0.178298 0.5 -0.0824687 -0.464567
392 1 0.724327 0.316205 0.5 0.0910227 0.864831
393 1 0.0122268 0.325639 0.5 -0.580879 0.202663
394 1 0.126351 0.143713 0.5 -0.134818 0.259703
395 1 0.208042 0.862103 0.5 -0.843652 0.165319
396 1 0.1902 0.315471 0.5 -0.0496136 -0.672996
397 1 0.919994 0.17814 0.5 0.244131 -0.72071
398 1 0.322359 0.504928 0.5 -0.0553099 -0.0902183
399 1 0.197464 0.391925 0.5 0.471981 -0.705648
400 1 0.71869 0.982381 0.5 0.263429 0.388283
401 1 0.272452 0.87378 0.5 0.16221 0.723004
402 1 0.596145 0.219417 0.5 0.122067 0.29023
403 1 0.513952 0.077397 0.5 -0.820627 -0.0514888
404 1 0.1193 0.319675 0.5 0.450268 -0.405595
405 1 0.146286 0.975881 0.5 0.0154489 0.449685
406 1 0.769558 0.522993 0.5 -0.588251 0.433337
407 1 0.328669 0.234398 0.5 0.00772629 0.588834
408 1 0.126501 0.982608 0.5 -0.226758 -0.199594
409 1 0.0408478 0.269559 0.5 0.440684 0.702022
410 1 0.172761 0.0788157 0.5 -0.815229 0.42415
411 1 0.182967 0.2455 0.5 0 0
412 1 0.871747 0.13112 0.5 -0.384903 0.118159
413 1 0.653334 0.142457 0.5 0.307663 0.0766629
414 1 0.402788 0.938774 0.5 0.369751 0.0994933
415 1 0.0453051 0.290624 0.5 -0.406879 0.173755
416 1 0.051773 0.344101 0.5 -0.812103 -0.456461
417 1 0.0499126 0.355054 0.5 -0.173555 -0.275168
418 1 0.0521778 0.781013 0.5 0.216484 -0.168869
419 1 0.0150948 0.641917 0.5 -0.752279 -0.311378
420 1 0.997979 0.158649 0.5 -0.928688 -0.158764
421 1 0.472109 0.604074 0.5 0 0
422 1 0.0321067 0.334935 0.5 -0.731091 0.579268
423 1 0.157768 0.885492 0.5 0.358866 -0.0362536
424 1 0.70359 0.485791 0.5 0 0
425 1 0.97653 0.919307 0.5 0.654601 -0.451206
426 1 0.910199 0.29945 0.5 0.532902 0.168328
427 1 0.476443 0.417125 0.5 -0.321484 -0.196795
428 1 0.268538 0.544176 0.5 -0.457067 0.453683
429 1 0.198567 0.0320063 0.5 0.573827 0.592972
430 1 0.86478 0.322659 0.5 -0.598276 -0.189847
431 1 0.996978 0.692612 0.5 -0.679781 -0.162072
432 1 0.839604 0.923162 0.5 -0.209132 0.630725
433 1 0.00826644 0.834351 0.5 0.550867 -0.362852
434 1 0.777304 0.862891 0.5 -0.0445938 0.105963
435 1 0.987824 0.16341 0.5 -0.530101 -0.139286
436 1 0.148215 0.0317957 0.5 0.0418864 0.135337
437 1 0.913147 0.0368193 0.5 -0.0875447 -0.622176
438 1 0.718474 0.786879 0.5 0.0342782 -0.143102
439 1 0.824128 0.029388 0.5 -0.295081 0.244827
440 1 0.981675 0.392423 0.5 -0.0338287 -0.422144
441 1 0.930053 0.0480263 0.5 -0.47758 0.229881
442 1 0.075579 0.475755 0.5 0.729944 0.398304
443 1 0.199492 0.175516 0.5 -0.169102 0.645237
444 1 0.592782 0.245984 0.5 0.369813 -0.478345
445 1 0.577277 0.961392 0.5 0.24709 -0.605359
446 1 0.97018 0.0229426 0.5 -0.0634404 -0.400093
447 1 0.046572 0.0360926 0.5 -0.0361396 -0.227334
448 1 0.192423 0.84017 0.5 -0.45427 0.0674721
449 1 0.940996 0.32446 0.5 0.475439 -0.357164
450 1 0.25307 0.844301 0.5 -0.111687 0.604931
451 1 0.241077 0.0818553 0.5 -0.477718 -0.013517
452 1 0.296001 0.14336 0.5 -0.0171977 -0.0412607
453 1 0.959477 0.212098 0.5 -0.0259848 0.446388
454 1 0.307757 0.542542 0.5 0.915661 0.0273732
455 1 0.0350407 0.0375364 0.5 0.312013 -0.518278
456 1 0.681808 0.0560227 0.5 -0.0220286 0.434077
457 1 0.306267 0.446096 0.5 -0.414621 0.475327
458 1 0.10462 0.253026 0.5 0.295724 0.702377
459 1 0.857036 0.175132 0.5 -0.27083 -0.3164
460 1 0.415713 0.99671 0.5 0.0214109 0.00872333
461 1 0.169502 0.024237 0.5 -0.250867 -0.394347
462 1 0.133686 0.96126 0.5 0.16827 0.434333
463 1 0.782873 0.528672 0.5 -0.0750185 0.527062
464 1 0.920768 0.103608 0.5 0.526001 -0.124565
465 1 0.0752481 0.365082 0.5 -0.0369467 0.177365
466 1 0.951873 0.23804 0.5 0.372173 0.435849
467 1 0.192472 0.275315 0.5 0.162766 0.489839
468 1 0.734354 0.319113 0.5 -0.509736 0.671544
469 1 0.658668 0.945014 0.5 0.648694 0.437353
470 1 0.912847 0.201207 0.5 0.526371 -0.217736
471 1 0.876417 0.910642 0.5 0.416007 0.467157
472 1 0.552177 0.800923 0.5 -0.193769 0.533354
473 1 0.213581 0.934371 0.5 -0.161052 -0.478348
474 1 0.767409 0.226794 0.5 -0.434984 0.1175
475 1 0.953059 0.935867 0.5 -0.470459 0.111204
476 1 0.212341 0.296234 0.5 -0.103744 -0.472283
477 1 0.751189 0.236505 0.5 0.163476 0.113185
478 1 0.124533 0.134327 0.5 -0.212029 0.178653
479 1 0.642133 0.402838 0.5 0.903881 -0.02014
480 1 0.891393 0.0783687 0.5 -0.159097 -0.286905
481 1 0.809849 0.883066 0.5 -0.629167 0.353346
482 1 0.0171788 0.73304 0.5 0.824713 0.0204122
483 1 0.238253 0.103045 0.5 -0.145054 0.0162753
484 1 0.857471 0.794103 0.5 -0.282608 0.0555653
485 1 0.913539 0.927103 0.5 0.185139 -0.537783
486 1 0.124813 0.0128805 0.5 -0.67174 -0.210887
487 1 0.986202 0.222852 0.5 -0.23651 0.386116
488 1 0.854606 0.94882 0.5 -0.444713 0.104727
489 1 0.125485 0.0721321 0.5 0.654054 0.463329
490 1 0.82372 0.227674 0.5 0.329521 0.0867964
491 1 0.468882 0.102547 0.5 0.343395 0.252832
492 1 0.212705 0.454021 0.5 -0.17898 0.185312
493 1 0.0548247 0.163868 0.5 0.820757 -0.340004
494 1 0.953156 0.386617 0.5 0.840433 0.254048
495 1 0.998298 0.567499 0.5 0.0656455 -0.262924
496 1 0.0657533 0.26948 0.5 -0.00224788 -0.260485
497 1 0.711625 0.315029 0.5 -0.399739 0.429305
498 1 0.704877 0.152347 0.5 0.199482 -0.510215
499 1 0.317713 0.337376 0.5 0.422829 -0.452964
500 1 0.206632 0.00382487 0.5 -0.267456 -0.326153
501 1 0.169577 0.994231 0.5 0.0136151 0.595856
502 1 0.931909 0.966288 0.5 -0.592605 0.300564
503 1 0.0898345 0.285711 0.5 -0.0931912 -0.817291
504 1 0.106485 0.289291 0.5 0.471393 -0.000197945
505 1 0.797515 0.377899 0.5 -0.601208 -0.0347759
506 1 0.0648379 0.372606 0.5 -0.560189 0.565313
507 1 0.134441 0.89126 0.5 0.00720472 -0.294033
508 1 0.0785378 0.679445 0.5 0.340235 -0.41422
509 1 0.0827887 0.358288 0.5 -0.1303 -0.0998296
510 1 0.842284 0.932852 0.5 -0.171345 0.712731
511 1 0.195057 0.458441 0.5 -0.375303 0.0114222
512 1 0.220474 0.814967 0.5 -0.0238819 0.672638
513 1 0.265532 0.470033 0.5 0.43044 0.0098191
514 1 0.0983656 0.50788 0.5 0.242702 0.0611873
515 1 0.305774 0.735234 0.5 0.39321 0.0940153
516 1 0.883755 0.810091 0.5 0.102623 -0.052982
517 1 0.159421 0.395754 0.5 0.0119242 -0.420788
518 1 0.147285 0.461014 0.5 -0.757503 -0.0395061
519 1 0.544572 0.315457 0.5 0.595801 0.302349
520 1 0.92445 0.407077 0.5 -0.280813 -0.455485
521 1 0.382952 0.23263 0.5 0.404649 -0.60038
522 1 0.762097 0.792813 0.5 -0.0307011 0.633006
523 1 0.0788129 0.978858 0.5 -0.0213708 -0.120937
524 1 0.86885 0.440519 0.5 -0.73384 0.101768
525 1 0.0573987 0.234058 0.5 0.274654 0.308936
526 1 0.020546 0.190309 0.5 -0.512276 0.758491
527 1 0.0532699 0.83088 0.5 0.0277863 -0.49547
528 1 0.701536 0.319608 0.5 -0.827299 0.275013
529 1 0.343567 0.598432 0.5 0.454676 -0.659403
530 1 0.0470392 0.956771 0.5 0.152887 0.546371
531 1 0.898094 0.90354 0.5 -0.210602 -0.363172
532 1 0.339593 0.192231 0.5 -0.401479 0.715771
533 1 0.197545 0.805949 0.5 0.470529 -0.238331
534 1 0.0748464 0.0655459 0.5 -0.388638 -0.694991
535 1 0.00445529 0.0341833 0.5 0.701025 0.0216913
536 1 0.397898 0.378359 0.5 0.173381 -0.214106
537 1 0.336563 0.375339 0.5 0.635927 -0.0858894
538 1 0.700082 0.724997 0.5 -0.0977204 -0.412172
539 1 0.933814 0.998852 0.5 0.181161 0.59076
540 1 0.887754 0.410106 0.5 -0.279042 -0.436478
541 1 0.224928 0.323557 0.5 0.0157345 0.168213
542 1 0.755715 0.826169 0.5 0.188242 0.204947
543 1 0.370928 0.0453923 0.5 0.0268419 0.079851
544 1 0.20695 0.232546 0.5 -0.257831 -0.026243
545 1 0.830146 0.661222 0.5 0.7737 -0.375145
546 1 0.178851 0.352833 0.5 -0.335417 0.300717
547 1 0.147672 0.21601 0.5 0.775246 -0.327776
548 1 0.00958937 0.125987 0.5 -0.232209 -0.457643
549 1 0.106678 0.545813 0.5 0.0595324 -0.480207
550 1 0.216715 0.107029 0.5 -0.498016 0.350911
551 1 0.299584 0.0152583 0.5 -0.493736 0.616924
552 1 0.0699899 0.152153 0.5 -0.0999355 -0.247932
553 1 0.26591 0.391771 0.5 0.133254 0.90045
554 1 0.129855 0.447517 0.5 -0.171092 -0.113825
555 1 0.329708 0.354058 0.5 -0.172599 -0.572829
556 1 0.465008 0.150939 0.5 0 0
557 1 0.153779 0.998008 0.5 -0.413388 0.0197386
558 1 0.611852 0.214778 0.5 0.031142 -0.0425331
559 1 0.819156 0.34132 0.5 -0.850266 0.00740948
560 1 0.257266 0.630075 0.5 0.35875 -0.287544
561 1 0.290108 0.863438 0.5 0.300098 0.0715296
562 1 0.0686393 0.121899 0.5 -0.849616 -0.372798
563 1 0.679021 0.160855 0.5 -0.418648 0.267387
564 1 0.952875 0.190817 0.5 -0.159537 0.0806325
565 1 0.248186 0.247428 0.5 -0.041411 0.327217
566 1 0.361846 0.939902 0.5 0.502069 -0.103527
567 1 0.700332 0.39173 0.5 0.347471 0.177685
568 1 0.054622 0.472421 0.5 0.215194 0.840453
569 1 0.341731 0.889894 0.5 0.482562 0.280533
570 1 0.878106 0.105206 0.5 -0.532468 0.191097
571 1 0.0758679 0.553785 0.5 -0.198064 0.304547
572 1 0.585145 0.23952 0.5 -0.199952 -0.143144
573 1 0.890944 0.497843 0.5 -0.200615 0.586823
574 1 0.454016 0.919594 0.5 -0.488235 0.491181
575 1 0.796195 0.0653877 0.5 0.247104 -0.710233
576 1 0.190781 0.295803 0.5 0.0718817 0.172519
577 1 0.92369 0.0213815 0.5 -0.309903 -0.0320668
578 1 0.575243 0.780282 0.5 -0.0590585 -0.102154
579 1 0.495177 0.912338 0.5 0.203438 0.449145
580 1 0.777004 0.167776 0.5 -0.272732 0.0787129
581 1 0.632522 0.40191 0.5 0.143763 0.158935
582 1 0.907315 0.126416 0.5 -0.479967 0.305183
583 1 0.824384 0.540405 0.5 0.400246 -0.427301
584 1 0.110466 0.179653 0.5 0.2933 -0.320164
585 1 0.199385 0.425743 0.5 -0.167325 0.242443
586 1 0.100962 0.931702 0.5 0.252744 -0.530431
587 1 0.240414 0.0717119 0.5 -0.392524 -0.223674
588 1 0.92273 0.197857 0.5 0.0255019 -0.449081
589 1 0.779935 0.366675 0.5 -0.320731 0.339828
590 1 0.833878 0.971711 0.5 0.601424 -0.398598
591 1 0.0592632 0.0769466 0.5 0.405508 0.410007
592 1 0.903379 0.996839 0.5 -0.240579 -0.225286
593 1 0.982394 0.829234 0.5 -0.169258 -0.317079
594 1 0.310482 0.196648 0.5 0.494329 0.80555
595 1 0.777633 0.200507 0.5 -0.142407 -0.232063
596 1 0.304187 0.0353536 0.5 -0.401294 -0.0580247
597 1 0.110487 0.189006 0.5 0.203191 -0.0529041
598 1 0.966008 0.339454 0.5 0.164834 -0.512734
599 1 0.111893 0.311299 0.5 -0.18811 -0.541484
600 1 0.815945 0.420614 0.5 0.542028 -0.280786
601 1 0.331282 0.28878 0.5 -0.233854 -0.246468
602 1 0.180324 0.31008 0.5 -0.0620632 -0.300833
603 1 0.794901 0.300132 0.5 0.394122 0.394487
604 1 0.949933 0.272313 0.5 -0.194661 0.0620714
605 1 0.803456 0.071971 0.5 0.0833846 -0.688813
606 1 0.997779 0.229124 0.5 -0.190457 -0.0913365
607 1 0.269 0.327557 0.5 -0.0091423 -0.0792596
608 1 0.942296 0.469554 0.5 -0.238325 -0.12658
609 1 0.784927 0.326174 0.5 0.462186 -0.116416
610 1 0.908889 0.257506 0.5 -0.0455359 0.253257
611 1 0.65109 0.577804 0.5 0.561239 -0.0128004
612 1 0.721498 0.830774 0.5 -0.445515 -0.540384
613 1 0.753364 0.00884141 0.5 -0.352192 -0.232661
614 1 0.748536 0.790016 0.5 0.38199 0.550639
615 1 0.599532 0.20149 0.5 -0.527237 0.74986
616 1 0.0411246 0.00107943 0.5 -0.331714 0.0991495
617 1 0.820479 0.301069 0.5 0.627258 -0.116148
618 1 0.849623 0.6862 0.5 -0.255546 -0.470477
619 1 0.0954271 0.450897 0.5 0.543118 0.290828
620 1 0.40283 0.626561 0.5 0.339737 0.413045
621 1 0.560883 0.526598 0.5 0.385418 0.494527
622 1 0.913149 0.16929 0.5 0.340335 -0.591667
623 1 0.680778 0.634556 0.5 -0.0295354 -0.553598
624 1 0.000886566 0.357995 0.5 0.016765 -0.137486
625 1 0.769029 0.140883 0.5 -0.745545 -0.441327
626 1 0.667472 0.297337 0.5 -0.347344 0.573981
627 1 0.684433 0.376938 0.5 -0.475155 0.596803
628 1 0.873696 0.69772 0.5 -0.269219 0.139692
629 1 0.737285 0.210647 0.5 -0.0471658 -0.798499
630 1 0.0114402 0.578301 0.5 0.473597 0.112671
631 1 0.149549 0.38615 0.5 -0.361483 -0.605423