# LAMMPS data file written by Ovito 3.7.11
9304 atoms
1 atom types
-58.36 58.36 xlo xhi
-58.36 58.36 ylo yhi
-0.5 0.5 zlo zhi

Atoms  # atomic

1 1 42.81301272 38.56965712 0.0
2 1 -47.382052136 -56.39221752 0.0
3 1 25.01916544 -10.01375896 0.0
4 1 47.12955176 -53.653826256 0.0
5 1 50.53135616 56.89352992 0.0
6 1 21.37224904 46.51011872 0.0
7 1 -57.28810188 -53.079843984 0.0
8 1 -57.5067791344 -50.84807588 0.0
9 1 45.61032424 -45.39672664 0.0
10 1 44.57665192 15.55924288 0.0
11 1 43.37420248 31.15070048 0.0
12 1 24.49532608 45.39672664 0.0
13 1 25.63427984 34.57900032 0.0
14 1 36.67645872 -35.71526952 0.0
15 1 51.6357608 -9.91116208 0.0
16 1 46.32815224 48.4522228 0.0
17 1 -39.4151768 -33.9836116 0.0
18 1 52.64165376 30.64448584 0.0
19 1 51.0556624 15.57231552 0.0
20 1 39.22865824 23.42827184 0.0
21 1 -15.35988512 -39.94006664 0.0
22 1 29.12794288 -52.403626664 0.0
23 1 50.47416336 -11.514428 0.0
24 1 10.30976088 39.14415296 0.0
25 1 -20.70005856 -18.001142 0.0
26 1 51.49382928 -49.933317896 0.0
27 1 44.0507116 40.85164984 0.0
28 1 11.05793608 -56.5514236 0.0
29 1 -6.11822896 -33.30266712 0.0
30 1 -7.16870896 21.634052 0.0
31 1 -29.74445792 36.25124776 0.0
32 1 -30.00591072 -41.32541632 0.0
33 1 -17.75638016 55.1461148 0.0
34 1 42.1773556 51.46406568 0.0
35 1 -12.2287544 56.20032984 0.0
36 1 34.53989912 37.5803384 0.0
37 1 23.206854 -56.447087592 0.0
38 1 33.3784184 -45.6801228 0.0
39 1 0.60846136 -42.27633416 0.0
40 1 40.07417792 -34.890526 0.0
41 1 -39.3410596 -24.26737192 0.0
42 1 16.489618 46.39398232 0.0
43 1 -48.129001776 38.50382704 0.0
44 1 -2.3828388 34.53009464 0.0
45 1 -56.772596328 25.04496056 0.0
46 1 35.77829832 -46.39573312 0.0
47 1 47.52289816 -35.8581348 0.0
48 1 48.24201008 -41.09547792 0.0
49 1 -47.634319072 -18.01304744 0.0
50 1 36.52098768 56.40715768 0.0
51 1 -13.53006568 24.69176584 0.0
52 1 -45.88344904 42.77951408 0.0
53 1 24.54644944 5.34005672 0.0
54 1 33.86362344 25.40375784 0.0
55 1 -56.98206204 -21.80341272 0.0
56 1 -35.23695096 -43.34350512 0.0
57 1 31.00561752 42.1580968 0.0
58 1 9.46645888 46.9698788 0.0
59 1 -57.267833452 57.2126424 0.0
60 1 32.17491848 38.49402256 0.0
61 1 -50.118914368 39.17858536 0.0
62 1 21.41660264 -44.51607424 0.0
63 1 42.20151664 46.07253544 0.0
64 1 -26.69631512 8.49114656 0.0
65 1 35.08323072 -27.54638688 0.0
66 1 -45.27720536 -42.68146928 0.0
67 1 43.15943768 32.24926912 0.0
68 1 -18.81713152 -47.915392504 0.0
69 1 42.89775144 24.77043512 0.0
70 1 58.05629456 -55.713642456 0.0
71 1 14.2993672 26.18531496 0.0
72 1 46.20921456 -46.995662248 0.0
73 1 -4.07025984 -39.41319256 0.0
74 1 28.55449752 55.94109472 0.0
75 1 55.06289344 55.868028 0.0
76 1 -21.0405308 -20.32398672 0.0
77 1 19.5325084 49.97273424 0.0
78 1 21.66311528 -56.86289092 0.0
79 1 48.35441144 34.6757612 0.0
80 1 23.86760592 37.93878552 0.0
81 1 -16.01538464 35.96983584 0.0
82 1 18.707298 56.7965356 0.0
83 1 -46.13112888 -41.2897 0.0
84 1 32.67179552 41.24593 0.0
85 1 46.7732056 -42.80425872 0.0
86 1 41.39789944 -12.00453528 0.0
87 1 30.18799392 39.32693648 0.0
88 1 11.93415312 55.37908792 0.0
89 1 -43.70918888 8.01761352 0.0
90 1 49.54915736 -49.53573456 0.0
91 1 50.96146936 -35.75040224 0.0
92 1 -34.47920472 -44.23909768 0.0
93 1 -47.223663096 24.07244952 0.0
94 1 41.61744976 24.8006656 0.0
95 1 40.94000688 9.03132672 0.0
96 1 55.00826848 -45.11624848 0.0
97 1 3.11105488 53.06242936 0.0
98 1 -51.808167912 -50.775160896 0.0
99 1 -37.58045512 37.80537456 0.0
100 1 -15.46411608 -18.96023024 0.0
101 1 -56.67304584 -54.36549144 0.0
102 1 24.94388104 -47.752673152 0.0
103 1 33.50027408 16.73834832 0.0
104 1 53.22338624 -48.209118384 0.0
105 1 40.51713032 -31.9030776 0.0
106 1 53.437334 -19.4006148 0.0
107 1 -28.61052312 28.19289896 0.0
108 1 -48.481682928 -9.25169408 0.0
109 1 -26.9027928 -33.0160028 0.0
110 1 28.15181352 -25.45558152 0.0
111 1 -52.828219008 -44.11058896 0.0
112 1 -1.84896152 56.43505376 0.0
113 1 -54.96414832 -36.8823528 0.0
114 1 -58.2599260228 -57.2478836696 0.0
115 1 47.33614616 47.98055728 0.0
116 1 20.43311992 51.84749088 0.0
117 1 -23.6871568 32.0303024 0.0
118 1 6.51274256 -19.30455424 0.0
119 1 -9.20617328 -36.60420904 0.0
120 1 16.92136528 23.30163064 0.0
121 1 23.63194824 53.98731864 0.0
122 1 -50.717244432 48.01207168 0.0
123 1 -8.69318888 41.34490856 0.0
124 1 27.65353584 -36.997322 0.0
125 1 -34.04594008 -37.34899936 0.0
126 1 50.59776984 -3.21656976 0.0
127 1 34.58366912 -46.06716632 0.0
128 1 26.97714344 -38.04558432 0.0
129 1 48.63185488 28.03929544 0.0
130 1 34.86391384 -8.42216504 0.0
131 1 -0.76474944 -46.905589424 0.0
132 1 55.555802 -48.951457584 0.0
133 1 33.86093888 48.75674528 0.0
134 1 -1.58365696 -48.923935008 0.0
135 1 -36.03064696 -42.44195984 0.0
136 1 -43.86034128 -43.84773552 0.0
137 1 11.68659 -54.454747224 0.0
138 1 -11.02723872 58.06831672 0.0
139 1 40.47872944 31.71655904 0.0
140 1 0.6997364 -53.6841968 0.0
141 1 52.58387736 -42.72547272 0.0
142 1 51.63389328 31.41542144 0.0
143 1 -44.80729064 39.95337272 0.0
144 1 24.57282816 -41.84563736 0.0
145 1 48.71799424 9.44591616 0.0
146 1 31.2185148 -28.36284328 0.0
147 1 4.85508512 -48.81720624 0.0
148 1 -30.05294888 49.07924264 0.0
149 1 10.42799824 -18.74476512 0.0
150 1 40.52541744 -26.35444224 0.0
151 1 -39.562244 46.04592328 0.0
152 1 -54.800880384 -47.046061944 0.0
153 1 36.90499648 -34.64331304 0.0
154 1 35.9305012 -54.45793368 0.0
155 1 32.01419504 51.83570216 0.0
156 1 -36.2351404 -16.9442424 0.0
157 1 13.22134128 -50.107557512 0.0
158 1 -36.82796128 39.08345856 0.0
159 1 4.34268432 -40.75582272 0.0
160 1 -49.380882136 -43.53049056 0.0
161 1 33.2138432 4.5223164 0.0
162 1 32.04244128 57.53747416 0.0
163 1 -25.92386216 23.42091848 0.0
164 1 -43.32984888 -46.919409072 0.0
165 1 26.9909164 51.59479208 0.0
166 1 -51.207795248 26.8467672 0.0
167 1 -51.522052176 43.82240728 0.0
168 1 25.7507664 44.9220264 0.0
169 1 -29.3177296 49.93083176 0.0
170 1 34.32396712 -3.25613784 0.0
171 1 1.3702928 -46.66909136 0.0
172 1 28.58694568 -55.909790416 0.0
173 1 -15.10263424 18.2865224 0.0
174 1 -52.078841592 -33.54964664 0.0
175 1 47.44306168 56.75206528 0.0
176 1 31.85825712 -54.896380688 0.0
177 1 -57.183905936 -56.943275984 0.0
178 1 -54.92627268 55.65839888 0.0
179 1 38.22556656 35.59621512 0.0
180 1 -8.78598128 35.214424 0.0
181 1 -31.590268 -45.61721072 0.0
182 1 38.75710944 15.52422688 0.0
183 1 56.70129208 -47.135784608 0.0
184 1 26.13057328 -56.096612448 0.0
185 1 19.9141828 -44.26057416 0.0
186 1 -53.99823196 56.43540392 0.0
187 1 55.44806944 -34.15273888 0.0
188 1 -39.31864936 4.80442864 0.0
189 1 15.76583728 19.76676544 0.0
190 1 12.94273064 -38.06857816 0.0
191 1 -10.81445816 40.84102832 0.0
192 1 45.3614772 -44.17104992 0.0
193 1 58.21106528 47.36602648 0.0
194 1 -55.34208768 20.34289536 0.0
195 1 48.56765888 30.71381752 0.0
196 1 -29.28819944 37.95874464 0.0
197 1 56.56274544 -43.67498992 0.0
198 1 -29.76756848 -2.99515192 0.0
199 1 14.32142728 36.71392584 0.0
200 1 39.61640208 14.80266384 0.0
201 1 15.71646472 -39.08182448 0.0
202 1 28.63935296 -9.00132968 0.0
203 1 51.61113288 -41.97578016 0.0
204 1 -23.89351776 51.69458768 0.0
205 1 54.35522008 -0.28759808 0.0
206 1 -13.06295224 -30.2065524 0.0
207 1 3.28286672 51.53783272 0.0
208 1 30.91889456 -55.570543736 0.0
209 1 33.98057688 -58.0158417424 0.0
210 1 -12.04818856 50.15189944 0.0
211 1 2.29564896 28.94399216 0.0
212 1 -2.95698448 -52.13403848 0.0
213 1 -47.345577136 52.78008368 0.0
214 1 25.97510224 47.3025308 0.0
215 1 -18.10724048 -58.0094933416 0.0
216 1 54.09703544 46.33363808 0.0
217 1 39.28888576 24.69024848 0.0
218 1 19.9112648 -55.05589024 0.0
219 1 38.81558616 -24.55473656 0.0
220 1 1.29769296 20.98053672 0.0
221 1 0.62025008 37.71760112 0.0
222 1 -33.21022488 -52.0693756 0.0
223 1 -13.04486064 49.00886048 0.0
224 1 43.22234976 -50.907521376 0.0
225 1 -15.33922568 5.40040096 0.0
226 1 50.24282432 -19.83913184 0.0
227 1 53.84340288 -45.6847916 0.0
228 1 -50.825502232 57.32107528 0.0
229 1 -58.193376364 -46.975107856 0.0
230 1 -39.00642336 -32.20374832 0.0
231 1 24.32631552 25.66532736 0.0
232 1 -20.0367388 47.66856472 0.0
233 1 19.39431192 -48.887518368 0.0
234 1 -29.63485784 -21.01975464 0.0
235 1 -52.69166828 39.59749344 0.0
236 1 3.10603592 -45.67615432 0.0
237 1 14.508296 55.05133816 0.0
238 1 28.08294872 51.02811648 0.0
239 1 -42.7189364 -39.5494048 0.0
240 1 0.4715488 -52.623422096 0.0
241 1 23.67641856 51.55954264 0.0
242 1 -5.99310512 -50.86459176 0.0
243 1 -41.44738872 -57.9228567544 0.0
244 1 10.81095656 55.67298888 0.0
245 1 2.04633504 -53.044489496 0.0
246 1 52.5467604 -56.603177248 0.0
247 1 -30.29677696 -44.10066776 0.0
248 1 3.670844 35.23298248 0.0
249 1 -54.799269648 50.76397912 0.0
250 1 27.48370824 27.73512312 0.0
251 1 -1.59007656 27.44857552 0.0
252 1 20.19932976 43.64709384 0.0
253 1 37.85976608 -50.510953504 0.0
254 1 0.50738184 49.36018768 0.0
255 1 26.90150888 -34.7242 0.0
256 1 50.59193384 42.52914968 0.0
257 1 16.51109448 16.42927376 0.0
258 1 -24.01770784 49.70789656 0.0
259 1 32.02878504 -2.25876544 0.0
260 1 32.81034216 -9.795726 0.0
261 1 -57.177894856 48.41930776 0.0
262 1 28.73716432 -48.152871016 0.0
263 1 -50.776024624 -36.09309216 0.0
264 1 -56.652771576 -23.20615368 0.0
265 1 -52.852905288 46.50498304 0.0
266 1 47.34291592 49.21989024 0.0
267 1 15.03972216 31.20719296 0.0
268 1 49.17915496 36.22428544 0.0
269 1 -33.68842672 35.33277808 0.0
270 1 -21.5354236 -14.42822608 0.0
271 1 -31.25142984 -48.111902296 0.0
272 1 -47.595929864 -50.777962176 0.0
273 1 43.39206064 27.15000576 0.0
274 1 7.8068172 41.01902632 0.0
275 1 10.62046952 30.3915536 0.0
276 1 -45.44971752 -51.501917976 0.0
277 1 -40.7895548 -45.61044096 0.0
278 1 -46.884988344 -57.5426016696 0.0
279 1 -48.665855416 -22.53139536 0.0
280 1 52.57057128 28.95262944 0.0
281 1 37.85252944 55.11681808 0.0
282 1 16.45752 48.8280612 0.0
283 1 -22.63037392 57.14226024 0.0
284 1 46.24376368 56.70280944 0.0
285 1 55.44421768 -57.9139183368 0.0
286 1 38.18868304 0.42929616 0.0
287 1 42.90813952 39.70417552 0.0
288 1 5.80180104 -31.44985384 0.0
289 1 -0.63530696 44.57910304 0.0
290 1 -1.26909656 25.42605136 0.0
291 1 56.6862352 21.81706896 0.0
292 1 57.50164112 -46.3045748 0.0
293 1 -53.094258904 -15.84077152 0.0
294 1 -48.908002728 -8.23482944 0.0
295 1 -51.717686568 4.07387816 0.0
296 1 43.87283032 -52.246953408 0.0
297 1 53.84130192 -56.19245124 0.0
298 1 -41.28433088 -19.16612432 0.0
299 1 -53.795209192 -46.43985328 0.0
300 1 -15.9101032 -25.4957332 0.0
301 1 37.70826352 -27.69578848 0.0
302 1 -15.4817408 -47.007205856 0.0
303 1 -27.34037608 -53.782720152 0.0
304 1 -33.58116104 -35.67266672 0.0
305 1 -49.989390184 -38.34765568 0.0
306 1 -1.62077392 -50.020145904 0.0
307 1 24.78467496 -35.06525584 0.0
308 1 39.11975848 -54.442725064 0.0
309 1 -36.91701864 -41.67651008 0.0
310 1 25.41437936 -46.74904456 0.0
311 1 49.40792616 -54.365631504 0.0
312 1 19.12492216 52.92820136 0.0
313 1 -50.910649472 -31.91043096 0.0
314 1 33.62026224 -13.94325448 0.0
315 1 -55.183325136 30.6512556 0.0
316 1 -22.03766976 -29.26275448 0.0
317 1 -55.397377944 -43.17577848 0.0
318 1 -34.07827152 4.16935512 0.0
319 1 -25.09561704 -22.49871376 0.0
320 1 -48.14898424 53.72002984 0.0
321 1 -41.54251552 20.89369704 0.0
322 1 40.18074328 -15.54850464 0.0
323 1 -33.08930296 -30.17783928 0.0
324 1 -33.64757472 -20.03452112 0.0
325 1 -34.54223352 -16.10654296 0.0
326 1 -54.880915288 -13.02139992 0.0
327 1 -54.43604868 57.76601192 0.0
328 1 16.56466896 -32.90733648 0.0
329 1 23.8149652 43.43046152 0.0
330 1 -29.02231128 -15.33560736 0.0
331 1 -1.5885592 55.02694368 0.0
332 1 44.16171232 -12.58148224 0.0
333 1 56.68425096 52.83202408 0.0
334 1 42.20758608 -49.868841768 0.0
335 1 -1.54373872 -38.18331392 0.0
336 1 -49.083759704 43.91438264 0.0
337 1 21.47507936 -32.67739808 0.0
338 1 10.71734712 -49.32038616 0.0
339 1 -35.92793336 -29.401768 0.0
340 1 15.53858344 21.14779648 0.0
341 1 -35.97695576 9.45700456 0.0
342 1 32.93149752 44.89856568 0.0
343 1 -10.73578888 -54.087371024 0.0
344 1 33.18162848 -52.67666976 0.0
345 1 -13.71915208 -12.84515272 0.0
346 1 24.11750344 -31.45160464 0.0
347 1 -42.45153088 -28.52018184 0.0
348 1 -48.38592584 -42.69594256 0.0
349 1 -48.56287336 37.33499296 0.0
350 1 50.02934344 -47.278824968 0.0
351 1 16.18661288 39.49384608 0.0
352 1 -45.1198668 -16.92988584 0.0
353 1 -42.7072644 26.31942624 0.0
354 1 -30.16068144 -14.57634376 0.0
355 1 -39.915322 -25.70828032 0.0
356 1 38.36563056 48.85362288 0.0
357 1 -56.88226644 -45.04248144 0.0
358 1 -8.51437384 -55.066430056 0.0
359 1 22.67367704 -54.2984358 0.0
360 1 49.21487128 -52.088470992 0.0
361 1 -28.76459352 0.636124 0.0
362 1 -44.26454264 -50.882788408 0.0
363 1 -42.448146 -56.05559704 0.0
364 1 48.62660248 -58.0708973992 0.0
365 1 -34.06776672 36.3600308 0.0
366 1 51.68326584 -45.02030464 0.0
367 1 -16.86452264 57.9608176 0.0
368 1 39.94531904 -24.18053224 0.0
369 1 44.34577976 51.99724264 0.0
370 1 -26.00148096 4.57740824 0.0
371 1 -44.15786056 -13.45443112 0.0
372 1 -48.114178336 35.11007632 0.0
373 1 56.45349552 31.41145296 0.0
374 1 22.0489916 9.12493616 0.0
375 1 -57.3033350072 -36.80578448 0.0
376 1 -27.85884632 -41.05952816 0.0
377 1 49.2961084 -50.987066056 0.0
378 1 -36.04908872 -27.47635488 0.0
379 1 -46.799187472 -52.801805272 0.0
380 1 17.2447964 -51.42560644 0.0
381 1 -18.421334 -49.946600632 0.0
382 1 -33.84611544 37.77140904 0.0
383 1 -39.3328892 -49.695442536 0.0
384 1 -29.57182904 -23.70606544 0.0
385 1 -35.29659488 53.16736064 0.0
386 1 28.88504856 -36.08725616 0.0
387 1 -45.2389212 -4.70871824 0.0
388 1 52.3611756 12.16735968 0.0
389 1 33.64535704 0.90644752 0.0
390 1 49.58417336 -12.46581272 0.0
391 1 -38.88363392 -37.54905744 0.0
392 1 26.18344744 -21.4525524 0.0
393 1 -56.932887904 -20.35141592 0.0
394 1 -43.61231128 -41.58581864 0.0
395 1 -34.07733776 42.26466216 0.0
396 1 -36.159856 -21.53822488 0.0
397 1 49.02169968 -37.5674992 0.0
398 1 -20.73425752 0.57519616 0.0
399 1 -35.31200192 -12.614514 0.0
400 1 25.5254968 56.30351032 0.0
401 1 -26.55940256 43.6276016 0.0
402 1 11.2220444 -32.74964776 0.0
403 1 1.62847744 -49.32622216 0.0
404 1 -44.435304 -21.047534 0.0
405 1 -41.28549808 55.54483032 0.0
406 1 31.46280976 2.68374296 0.0
407 1 -19.99775432 -31.00106544 0.0
408 1 -43.59480328 56.33000576 0.0
409 1 -53.592244784 -26.89707352 0.0
410 1 -38.19533608 -49.160631496 0.0
411 1 -37.00409176 -29.70524 0.0
412 1 43.39030984 -43.0556736 0.0
413 1 17.89714448 -41.73241896 0.0
414 1 -11.34658464 51.21370128 0.0
415 1 -53.071988728 -24.43836672 0.0
416 1 -52.31705544 -18.19653128 0.0
417 1 -52.534201328 -16.91809712 0.0
418 1 -52.269807184 32.79983736 0.0
419 1 -56.598134944 16.56455224 0.0
420 1 58.12410888 -39.84248872 0.0
421 1 -3.25543752 12.14751728 0.0
422 1 -54.612505976 -19.2663868 0.0
423 1 -39.94531904 44.99462624 0.0
424 1 23.7630248 -1.65847448 0.0
425 1 55.6205816 48.94151304 0.0
426 1 47.87842728 -23.408196 0.0
427 1 -2.74957304 -9.67317 0.0
428 1 -27.01624464 5.15622272 0.0
429 1 -35.18325976 -54.624224664 0.0
430 1 42.5771216 -20.69924152 0.0
431 1 58.00727216 22.48167264 0.0
432 1 39.63857888 49.39146864 0.0
433 1 -57.3951411232 39.02544872 0.0
434 1 32.36692288 42.35663752 0.0
435 1 56.93881728 -39.2867848 0.0
436 1 -41.0603452 -54.648805896 0.0
437 1 48.22251784 -54.062451304 0.0
438 1 25.50028528 33.48451688 0.0
439 1 37.83222016 -54.92983264 0.0
440 1 56.221106 -12.55638744 0.0
441 1 50.19578616 -52.754370264 0.0
442 1 -49.53841912 -2.8298764 0.0
443 1 -35.07529376 -37.87377248 0.0
444 1 10.82951504 -29.64874752 0.0
445 1 9.01977144 53.85367424 0.0
446 1 54.8794096 -55.682139728 0.0
447 1 -52.92411616 -54.147271728 0.0
448 1 -35.90038744 39.7046424 0.0
449 1 51.47305312 -20.4890288 0.0
450 1 -28.8216696 40.18681272 0.0
451 1 -30.22149256 -48.805849384 0.0
452 1 -23.81076328 -41.6270208 0.0
453 1 53.63015544 -33.60392144 0.0
454 1 -22.43860296 4.96550224 0.0
455 1 -54.270049496 -53.978751392 0.0
456 1 21.22062976 -51.821030456 0.0
457 1 -22.61251576 -6.29167488 0.0
458 1 -46.1487536 -28.82680528 0.0
459 1 41.67324192 -37.91859296 0.0
460 1 -9.83797864 57.9759912 0.0
461 1 -38.57572656 -55.53105736 0.0
462 1 -42.75617008 53.8382672 0.0
463 1 33.01693656 3.34659584 0.0
464 1 49.11204096 -46.26687424 0.0
465 1 -49.577041768 -15.74762896 0.0
466 1 52.74261656 -30.5759712 0.0
467 1 -35.89466816 -26.2252332 0.0
468 1 27.35379888 -21.11313064 0.0
469 1 18.51972896 51.94203408 0.0
470 1 48.18750184 -34.87511896 0.0
471 1 43.93539224 47.93013424 0.0
472 1 6.09009944 35.12373256 0.0
473 1 -33.43082568 50.69978312 0.0
474 1 31.21197848 -31.88860432 0.0
475 1 52.88104648 50.87439624 0.0
476 1 -33.57555848 -23.78356752 0.0
477 1 29.31878008 -30.7551364 0.0
478 1 -43.82450824 -42.68135256 0.0
479 1 16.58976376 -11.34074864 0.0
480 1 45.68339096 -49.212805336 0.0
481 1 36.16557528 44.71146352 0.0
482 1 -56.354890464 27.2004288 0.0
483 1 -30.55110984 -46.3325876 0.0
484 1 41.72401512 34.32770216 0.0
485 1 48.26827208 49.85146216 0.0
486 1 -43.79182664 -56.85658804 0.0
487 1 56.74949744 -32.34871456 0.0
488 1 41.38961232 52.3862704 0.0
489 1 -43.7133908 -49.940741288 0.0
490 1 37.7845984 -31.78589072 0.0
491 1 -3.63209296 -46.39071416 0.0
492 1 -33.5330724 -5.36666888 0.0
493 1 -51.960861016 -39.23332704 0.0
494 1 52.89236832 -13.23406376 0.0
495 1 58.16134256 7.87848328 0.0
496 1 -50.685274824 -26.9062944 0.0
497 1 24.70087 -21.58981512 0.0
498 1 23.91324344 -40.57805816 0.0
499 1 -21.27653864 -18.98147328 0.0
500 1 -34.24191296 -57.9135611736 0.0
501 1 -38.56697256 57.68664232 0.0
502 1 50.41241848 54.42513536 0.0
503 1 -47.87451716 -25.01181208 0.0
504 1 -45.9310708 -24.59395448 0.0
505 1 34.7259508 -14.25162872 0.0
506 1 -50.792120312 -14.86942768 0.0
507 1 -42.66804648 45.6678672 0.0
508 1 -49.193067984 20.9448204 0.0
509 1 -48.696902936 -16.54062464 0.0
510 1 39.95138848 50.52248544 0.0
511 1 -35.59294696 -4.85076648 0.0
512 1 -32.62627472 36.76294824 0.0
513 1 -27.36710496 -3.49774824 0.0
514 1 -46.878767168 0.9197536 0.0
515 1 -22.67005872 27.45651248 0.0
516 1 44.7918836 36.19382152 0.0
517 1 -39.75238088 -12.16759312 0.0
518 1 -41.1688948 -4.55044592 0.0
519 1 5.20244384 -21.53985896 0.0
520 1 49.541804 -10.84597256 0.0
521 1 -13.66184256 -31.2074264 0.0
522 1 30.59196184 34.17713336 0.0
523 1 -49.160958312 55.89230576 0.0
524 1 43.052172 -6.94262232 0.0
525 1 -51.660423736 -31.04075024 0.0
526 1 -55.96187088 -36.14713352 0.0
527 1 -52.142337272 38.6203136 0.0
528 1 23.52328192 -21.05535424 0.0
529 1 -18.25885976 11.48898304 0.0
530 1 -52.869584576 53.31431112 0.0
531 1 46.46553168 47.1011888 0.0
532 1 -18.72270504 -35.92279768 0.0
533 1 -35.3025476 35.71036728 0.0
534 1 -49.623928192 -50.709482552 0.0
535 1 -57.8399785512 -54.370125224 0.0
536 1 -11.91734544 -14.19793752 0.0
537 1 -19.07636664 -14.55043192 0.0
538 1 23.35357104 26.26164984 0.0
539 1 50.63477008 58.22600544 0.0
540 1 45.25864688 -10.49242768 0.0
541 1 -32.10640384 -20.59442696 0.0
542 1 29.8470548 38.07044568 0.0
543 1 -15.06528384 -53.061810744 0.0
544 1 -34.204796 -31.21723088 0.0
545 1 38.53464112 18.81783184 0.0
546 1 -37.48451128 -17.17733224 0.0
547 1 -41.12372416 -33.1473128 0.0
548 1 -57.2407287336 -43.65479736 0.0
549 1 -45.90854384 5.34729336 0.0
550 1 -33.0650252 -45.86757512 0.0
551 1 -23.39255552 -56.579051224 0.0
552 1 -50.190778872 -40.60070184 0.0
553 1 -27.3229848 -12.63248888 0.0
554 1 -43.2033244 -6.12581576 0.0
555 1 -19.87648224 -17.03435024 0.0
556 1 -4.08426624 -40.74239992 0.0
557 1 -40.41091512 58.12749376 0.0
558 1 13.05536544 -33.29111184 0.0
559 1 37.25188832 -18.5211296 0.0
560 1 -28.33191248 15.182354 0.0
561 1 -24.49859424 42.42048336 0.0
562 1 -50.348420904 -44.13194872 0.0
563 1 20.89533112 -39.5850044 0.0
564 1 52.85957 -36.08783976 0.0
565 1 -29.39173008 -29.48020384 0.0
566 1 -16.12533488 51.34536144 0.0
567 1 23.38275104 -12.6372744 0.0
568 1 -51.98452016 -3.21902088 0.0
569 1 -18.47315768 45.50842768 0.0
570 1 44.13253232 -46.08035568 0.0
571 1 -49.504698712 6.2777852 0.0
572 1 9.9381244 -30.4032256 0.0
573 1 45.63098368 -0.25176504 0.0
574 1 -5.36725248 48.97501168 0.0
575 1 34.5718804 -50.727947656 0.0
576 1 -36.09204168 -23.83387384 0.0
577 1 49.4530968 -55.86435132 0.0
578 1 8.78236296 32.71451504 0.0
579 1 -0.56294056 48.12809136 0.0
580 1 32.33190688 -38.77718528 0.0
581 1 15.46796784 -11.4490648 0.0
582 1 47.5418068 -43.60472448 0.0
583 1 37.86210048 4.7160716 0.0
584 1 -45.46640848 -37.39090184 0.0
585 1 -35.0877828 -8.66727704 0.0
586 1 -46.57571536 50.38825744 0.0
587 1 -30.29887792 -49.989787032 0.0
588 1 49.3410456 -35.26613096 0.0
589 1 32.6740132 -15.561694 0.0
590 1 38.97024016 55.05810792 0.0
591 1 -51.442799296 -49.378792848 0.0
592 1 47.08239688 57.99104808 0.0
593 1 56.30502768 38.42819248 0.0
594 1 -22.12054096 -35.40724544 0.0
595 1 32.40532376 -34.95682296 0.0
596 1 -22.85529336 -54.233527808 0.0
597 1 -45.46395736 -36.29921968 0.0
598 1 54.39245376 -18.73892912 0.0
599 1 -45.29984904 -22.02518072 0.0
600 1 36.8771004 -9.26593392 0.0
601 1 -19.69276496 -24.6535984 0.0
602 1 -37.31258272 -22.1674624 0.0
603 1 34.42084472 -23.32859296 0.0
604 1 52.51617976 -26.57562664 0.0
605 1 35.41938432 -49.95954488 0.0
606 1 58.10076488 -31.61664672 0.0
607 1 -26.96232 -20.12754696 0.0
608 1 51.62478912 -3.55365712 0.0
609 1 33.25667944 -20.28897072 0.0
610 1 47.72552408 -28.30389968 0.0
611 1 17.6352248 9.08128288 0.0
612 1 25.85324656 38.60794128 0.0
613 1 29.57264608 -57.3280306248 0.0
614 1 29.00912192 33.85066752 0.0
615 1 11.61737504 -34.8420872 0.0
616 1 -53.559936688 -58.2340089304 0.0
617 1 37.40630888 -23.21922632 0.0
618 1 40.80799656 21.733264 0.0
619 1 -47.221748888 -5.73130216 0.0
620 1 -11.3416824 14.77219992 0.0
621 1 7.10626376 3.10451856 0.0
622 1 48.22275128 -38.6004712 0.0
623 1 21.10040816 15.70537632 0.0
624 1 -58.2565200165 -16.5748236 0.0
625 1 31.40106488 -41.91613624 0.0
626 1 19.54733184 -23.65482536 0.0
627 1 21.52701976 -14.36379664 0.0
628 1 43.61779712 23.0778784 0.0
629 1 27.6959052 -33.77328216 0.0
630 1 -57.024699856 9.13929272 0.0
631 1 -40.90464072 -13.288572 0.0
632 1 -55.165817136 4.65584408 0.0
633 1 57.29656408 -2.26401784 0.0
634 1 -52.744203952 3.551206 0.0
635 1 31.380172 50.1825968 0.0
636 1 43.761246 21.37108184 0.0
637 1 53.64089368 2.01703832 0.0
638 1 22.85996216 -0.3338192 0.0
639 1 34.48399024 46.50813448 0.0
640 1 47.72832536 4.0746952 0.0
641 1 16.92953568 -47.760178248 0.0
642 1 11.50660776 -21.95304776 0.0
643 1 47.42590384 51.13573232 0.0
644 1 33.772932 28.15204696 0.0
645 1 56.7393428 -18.19968272 0.0
646 1 34.65696928 -41.75296168 0.0
647 1 -42.30177912 -46.53416304 0.0
648 1 -49.116102816 -10.38714624 0.0
649 1 -9.1905328 17.53461216 0.0
650 1 29.17042896 3.01359368 0.0
651 1 50.53707544 -33.06770976 0.0
652 1 46.31286192 -23.25692688 0.0
653 1 57.8598548 -8.37722784 0.0
654 1 -35.52513264 -6.6833872 0.0
655 1 23.33419552 -49.25356396 0.0
656 1 37.62457528 52.5397572 0.0
657 1 -32.50780392 22.45155888 0.0
658 1 37.20414984 33.9993688 0.0
659 1 40.60817192 -16.60785536 0.0
660 1 -37.24932048 1.08561272 0.0
661 1 43.43944896 41.88053664 0.0
662 1 43.06372728 6.87165656 0.0
663 1 12.50783192 25.98432312 0.0
664 1 22.59103928 -7.4741652 0.0
665 1 44.94793824 -2.85590496 0.0
666 1 -35.78705232 18.0484136 0.0
667 1 -36.54433168 -0.9827824 0.0
668 1 7.91746776 2.19095112 0.0
669 1 49.32388776 16.9979336 0.0
670 1 -37.34724856 50.31180584 0.0
671 1 38.83181024 -27.87693792 0.0
672 1 57.22851632 12.08950744 0.0
673 1 36.02457752 40.67890424 0.0
674 1 -51.827450056 -27.49187864 0.0
675 1 -35.34083176 -28.40124416 0.0
676 1 51.83967064 -29.61466528 0.0
677 1 19.08010168 -36.20175848 0.0
678 1 25.7997888 14.00675016 0.0
679 1 -43.26016704 52.81895144 0.0
680 1 -55.087836504 11.25484272 0.0
681 1 58.10426648 25.08978104 0.0
682 1 56.47041992 0.77408704 0.0
683 1 51.8610304 21.11733256 0.0
684 1 8.77162472 -5.34005672 0.0
685 1 37.20485016 42.12798304 0.0
686 1 55.8604412 18.84199288 0.0
687 1 -19.60102304 28.15391448 0.0
688 1 55.60354048 -23.71061752 0.0
689 1 -32.4609992 3.49144536 0.0
690 1 52.9984668 -44.8479092 0.0
691 1 7.8908556 -19.44998736 0.0
692 1 -16.91307816 -0.7919452 0.0
693 1 -20.9757512 4.94227496 0.0
694 1 -53.25425868 -33.63438536 0.0
695 1 14.65606352 30.14025544 0.0
696 1 53.48495576 -4.90539144 0.0
697 1 7.53439272 13.08127728 0.0
698 1 18.50210424 -12.41947488 0.0
699 1 -31.87191336 -6.87819288 0.0
700 1 -57.174288208 -27.54335216 0.0
701 1 18.6892064 3.30621072 0.0
702 1 -43.8353632 -23.63533312 0.0
703 1 52.7475188 -20.53478304 0.0
704 1 42.28929008 13.24433512 0.0
705 1 -13.2045336 50.11221464 0.0
706 1 39.0726036 8.37886192 0.0
707 1 49.07048864 1.27423224 0.0
708 1 40.72967744 -6.28058648 0.0
709 1 -29.67757736 33.10272576 0.0
710 1 44.16731488 -1.6766828 0.0
711 1 56.58550584 -25.29334072 0.0
712 1 -50.023869272 58.11232016 0.0
713 1 48.28613024 37.02288368 0.0
714 1 10.20039424 -9.9690552 0.0
715 1 21.09270464 -37.23508064 0.0
716 1 20.02203208 16.01141616 0.0
717 1 22.49579576 57.47012672 0.0
718 1 -16.77896688 -44.13136512 0.0
719 1 -7.13941224 52.65145824 0.0
720 1 -8.91343952 -5.81802512 0.0
721 1 12.09114152 -6.32120504 0.0
722 1 6.91367576 -31.8797336 0.0
723 1 5.48012072 -14.58089584 0.0
724 1 26.76553008 -44.38009544 0.0
725 1 -47.2053614 -9.12096768 0.0
726 1 24.7703184 46.5438508 0.0
727 1 -52.209299536 -48.599780224 0.0
728 1 -40.83834376 -37.65842408 0.0
729 1 -20.72853824 -9.81930344 0.0
730 1 29.04892344 -34.13032864 0.0
731 1 -30.72875768 -16.66341408 0.0
732 1 26.18881656 -31.19377016 0.0
733 1 16.62816464 53.66190328 0.0
734 1 39.42591504 -14.06721112 0.0
735 1 5.5687112 -16.83580952 0.0
736 1 -56.858093728 5.3650348 0.0
737 1 10.61708464 -40.2929112 0.0
738 1 -44.07545624 -7.69406568 0.0
739 1 -45.14309408 -19.9112648 0.0
740 1 -38.28287608 1.55097536 0.0
741 1 -53.004349488 -31.09876008 0.0
742 1 -24.32106312 -39.79813512 0.0
743 1 34.878854 -11.05478464 0.0
744 1 -51.312458072 -40.25742832 0.0
745 1 -24.581232 -20.58602312 0.0
746 1 18.06043576 -14.64800984 0.0
747 1 44.31554928 -6.22304352 0.0
748 1 -35.57637272 -15.63044208 0.0
749 1 20.29247232 -20.9033848 0.0
750 1 -55.388472208 -0.32669928 0.0
751 1 54.149326 -57.2726201392 0.0
752 1 -16.4867 5.99672344 0.0
753 1 -26.65849784 13.98352288 0.0
754 1 54.02233464 25.23743184 0.0
755 1 -28.49065168 -17.66101992 0.0
756 1 54.65694128 -9.36748032 0.0
757 1 -34.03286744 -22.37732496 0.0
758 1 36.06169448 -8.11822616 0.0
759 1 -21.06107352 -28.24355544 0.0
760 1 -52.006300112 -11.143842 0.0
761 1 54.26908072 13.79245224 0.0
762 1 -57.034375944 2.31782576 0.0
763 1 -56.027899384 -9.91758168 0.0
764 1 -36.86227696 17.71622848 0.0
765 1 30.28895672 -11.3259252 0.0
766 1 -50.553696368 18.9979308 0.0
767 1 56.43773832 -45.97915944 0.0
768 1 -54.608525824 19.46562784 0.0
769 1 -5.27761152 -51.847514224 0.0
770 1 30.4073108 -27.54627016 0.0
771 1 39.49559688 -32.58343848 0.0
772 1 40.42001928 24.45365704 0.0
773 1 -32.34159464 55.79496128 0.0
774 1 -49.504652024 -26.66386696 0.0
775 1 -54.229349232 -7.16439032 0.0
776 1 20.85634664 -28.54107472 0.0
777 1 34.54608528 -26.60328928 0.0
778 1 45.0790148 -21.81987024 0.0
779 1 22.00627208 26.45003592 0.0
780 1 49.82730112 -7.94711464 0.0
781 1 42.36539152 -27.5535068 0.0
782 1 -37.10797256 48.39106152 0.0
783 1 -41.6182668 28.81501656 0.0
784 1 -15.87753832 8.97623488 0.0
785 1 -56.502693 -30.6174068 0.0
786 1 -36.79527968 -30.87570816 0.0
787 1 -44.09366456 -17.50694952 0.0
788 1 -56.614370696 -48.645242664 0.0
789 1 22.99115544 -38.13043976 0.0
790 1 16.70928504 20.47653976 0.0
791 1 -25.010178 -58.1573460672 0.0
792 1 25.42896936 22.25815384 0.0
793 1 -35.46210384 -20.592326 0.0
794 1 14.3192096 -20.06054968 0.0
795 1 17.61549912 -9.28495928 0.0
796 1 54.63651528 -36.75722896 0.0
797 1 33.75180568 18.2678472 0.0
798 1 -37.8190308 -33.27348712 0.0
799 1 27.53623224 44.16638112 0.0
800 1 4.3647444 48.84276792 0.0
801 1 45.40162888 -54.222170952 0.0
802 1 19.54908264 -50.123314712 0.0
803 1 -44.39083368 -49.005639008 0.0
804 1 58.23557648 1.28286952 0.0
805 1 22.53349632 -1.73305856 0.0
806 1 50.1668396 13.1975304 0.0
807 1 38.95261544 -31.41413752 0.0
808 1 48.39631392 47.31852144 0.0
809 1 48.75487776 -6.06150304 0.0
810 1 25.73395872 -22.6133328 0.0
811 1 31.90272744 -44.1662644 0.0
812 1 31.28539536 -12.9010616 0.0
813 1 30.15251104 6.24428656 0.0
814 1 -34.59125592 -5.66990744 0.0
815 1 -33.9608512 -34.6127324 0.0
816 1 27.753098 -31.35134216 0.0
817 1 35.5978492 -36.52950824 0.0
818 1 49.58989264 27.49596384 0.0
819 1 49.53526768 -2.88461808 0.0
820 1 23.7367628 -19.77575288 0.0
821 1 33.51229624 11.82968872 0.0
822 1 33.85895464 -42.52833264 0.0
823 1 26.48049984 -20.26504312 0.0
824 1 40.38908848 -12.73251792 0.0
825 1 27.009008 -14.18311408 0.0
826 1 50.84755064 -4.3139712 0.0
827 1 48.86692896 -40.0676416 0.0
828 1 -5.1526044 18.45308184 0.0
829 1 55.26773704 28.39050592 0.0
830 1 48.78207352 25.53343376 0.0
831 1 45.97414048 58.2917188 0.0
832 1 27.5056516 28.9687368 0.0
833 1 -54.29382536 2.79672792 0.0
834 1 0.85929264 -26.3477892 0.0
835 1 -40.89413592 17.96332472 0.0
836 1 8.94285296 -3.13533264 0.0
837 1 -10.02776536 -26.73191472 0.0
838 1 31.79324408 -3.74542808 0.0
839 1 52.20033544 -23.8464796 0.0
840 1 10.7574988 13.81988144 0.0
841 1 44.55167384 4.95091224 0.0
842 1 -54.562993352 -34.63864424 0.0
843 1 33.898406 -19.35322648 0.0
844 1 -8.59222608 -11.3545216 0.0
845 1 -24.01502328 -44.78558072 0.0
846 1 39.91987408 16.97715744 0.0
847 1 -53.294748848 9.68262432 0.0
848 1 3.090162 -27.3725908 0.0
849 1 55.77220088 54.98317368 0.0
850 1 -42.579456 24.11972112 0.0
851 1 -30.20491832 25.24350128 0.0
852 1 -41.99048688 -14.67217088 0.0
853 1 -17.58188376 4.5824272 0.0
854 1 23.4554676 -5.47615224 0.0
855 1 -17.56367544 -36.75244344 0.0
856 1 8.22735936 11.43926032 0.0
857 1 47.59479768 -42.05386584 0.0
858 1 22.1983932 47.38586888 0.0
859 1 -43.24137512 -25.865152 0.0
860 1 40.48631624 -25.10577168 0.0
861 1 56.4323692 26.38117112 0.0
862 1 45.46734224 -17.65810192 0.0
863 1 -49.607143856 -36.06076072 0.0
864 1 -52.924723104 -11.88489728 0.0