ITEM: TIMESTEP
0
ITEM: NUMBER OF ATOMS
10180
ITEM: BOX BOUNDS pp pp pp
-5.8359999999999999e+01 5.8359999999999999e+01
-5.8359999999999999e+01 5.8359999999999999e+01
-5.0000000000000000e-01 5.0000000000000000e-01
ITEM: ATOMS id type xs ys zs c_002[1] c_002[2]
1 1 0.0096022 0.207864 0.5 0.141402 -0.668912
2 1 0.0422284 0.0950424 0.5 -0.389308 -0.218585
3 1 0.228669 0.0128895 0.5 -0.173525 -0.391959
4 1 0.168856 0.118492 0.5 -0.792918 -0.412491
5 1 0.0352049 0.155687 0.5 -0.0588498 -0.579639
6 1 0.987038 0.250593 0.5 -0.2209 -0.927525
7 1 0.0626182 0.252926 0.5 -0.487342 -0.7212
8 1 0.962143 0.278163 0.5 -0.113068 -0.851491
9 1 0.0288524 0.12056 0.5 -0.0895862 -0.430089
10 1 0.0610803 0.088356 0.5 -0.316161 -0.928924
11 1 0.0984285 0.124579 0.5 0.157929 -0.838803
12 1 0.988726 0.241096 0.5 -0.244267 -0.858672
13 1 0.0195456 0.202624 0.5 -0.105111 -0.526911
14 1 0.0490272 0.116106 0.5 -0.148345 -0.894093
15 1 0.889055 0.186528 0.5 0.140697 -0.936774
16 1 0.304546 0.28992 0.5 -0.210553 -0.726916
17 1 0.867265 0.275971 0.5 0.187172 -0.784834
18 1 0.131543 0.0165472 0.5 -0.433027 -0.816355
19 1 0.093105 0.0692038 0.5 -0.253204 -0.902288
20 1 0.900207 0.270191 0.5 0.0294232 -0.122296
21 1 0.367892 0.233696 0.5 -0.622783 -0.459745
22 1 0.211041 0.0840436 0.5 -0.421688 -0.686464
23 1 0.253237 0.0247061 0.5 -0.322253 -0.568894
24 1 0.922012 0.167084 0.5 -0.589398 -0.573186
25 1 0.986763 0.134796 0.5 -0.064384 -0.625722
26 1 0.00395027 0.256654 0.5 0.603692 -0.452878
27 1 0.0818491 0.116375 0.5 0.483416 0.358805
28 1 0.176925 0.162456 0.5 0.0864691 -0.964365
29 1 0.0840491 0.284756 0.5 -0.242609 -0.811209
30 1 0.06812 0.959902 0.5 -0.667387 -0.248896
31 1 0.192383 0.214012 0.5 -0.452841 -0.690943
32 1 0.981498 0.0725335 0.5 -0.120201 -0.836521
33 1 0.118768 0.267215 0.5 0.458427 -0.668973
34 1 0.186554 0.233755 0.5 0.278789 -0.640946
35 1 0.238526 0.135332 0.5 0.321972 -0.829713
36 1 0.177398 0.236089 0.5 -0.103553 -0.849209
37 1 0.953938 0.108844 0.5 -0.263385 -0.937077
38 1 0.109647 0.16918 0.5 0.172007 -0.186004
39 1 0.978761 0.204982 0.5 -0.0250182 -0.901955
40 1 0.146834 0.126677 0.5 0.398789 -0.776353
41 1 0.12918 0.987178 0.5 -0.100118 -0.876897
42 1 0.0639736 0.243588 0.5 0.028832 -0.591549
43 1 0.231948 0.308887 0.5 -0.320425 -0.315898
44 1 0.971554 0.000410298 0.5 0.124528 -0.943519
45 1 0.995143 0.29684 0.5 -0.168498 -0.197945
46 1 0.18506 0.196381 0.5 -0.0447907 -0.857864
47 1 0.0843143 0.351503 0.5 -0.00942615 -0.969
48 1 0.964154 0.104732 0.5 -0.599619 -0.711095
49 1 0.0795585 0.0448695 0.5 -0.369869 -0.821597
50 1 0.999004 0.15941 0.5 -0.639352 -0.397606
51 1 0.168656 0.986611 0.5 -0.567118 -0.376337
52 1 0.180464 0.226002 0.5 -0.134503 -0.652514
53 1 0.0725621 0.113425 0.5 0.57217 0.602454
54 1 0.000390783 0.149862 0.5 -0.809243 -0.538171
55 1 0.164084 0.210901 0.5 -0.0774904 -0.864239
56 1 0.19466 0.35493 0.5 -0.187557 0.229167
57 1 0.227953 0.0983825 0.5 -0.573334 -0.634307
58 1 0.873674 0.0944269 0.5 0.353781 -0.808253
59 1 0.0755892 0.123653 0.5 0.564937 0.476695
60 1 0.105445 0.193073 0.5 -0.0937236 -0.487067
61 1 0.0779272 0.153056 0.5 -0.506532 -0.800819
62 1 0.134257 0.139454 0.5 -0.61832 -0.760825
63 1 0.21834 0.152966 0.5 0.371516 -0.500213
64 1 0.0991573 0.301066 0.5 0.354375 -0.778435
65 1 0.290606 0.185837 0.5 -0.31655 -0.69122
66 1 0.0551207 0.123367 0.5 0.288733 -0.762036
67 1 0.114792 0.247019 0.5 -0.0529094 0.182539
68 1 0.0956981 0.196221 0.5 0.265231 -0.866236
69 1 0.168398 0.190756 0.5 -0.196885 -0.907366
70 1 0.845121 0.0924493 0.5 -0.482161 -0.454659
71 1 0.0984966 0.186698 0.5 -0.10812 -0.800697
72 1 0.0711669 0.133967 0.5 0.129001 0.103706
73 1 0.91117 0.142209 0.5 -0.0199664 -0.785451
74 1 0.82206 0.0323892 0.5 -0.118072 -0.981129
75 1 0.17563 0.199121 0.5 0.0318463 -0.975931
76 1 0.205604 0.296256 0.5 0.176553 -0.603428
77 1 0.289789 0.971961 0.5 -0.115481 -0.678835
78 1 0.0618388 0.131636 0.5 -0.183156 -0.0785236
79 1 0.909038 0.239021 0.5 0.187012 -0.639327
80 1 0.204594 0.127552 0.5 -0.265588 -0.687606
81 1 0.125549 0.276049 0.5 0.388802 -0.821378
82 1 0.0626692 0.0431398 0.5 -0.21287 0.0512634
83 1 0.11691 0.18031 0.5 0.186066 -0.517248
84 1 0.0985457 0.145067 0.5 -0.212921 -0.444668
85 1 0.233126 0.242996 0.5 0.181891 -0.726288
86 1 0.181956 0.0346109 0.5 -0.68932 -0.370104
87 1 0.0602975 0.0119516 0.5 0.232997 0.223228
88 1 0.0179071 0.0770399 0.5 -0.553392 -0.604706
89 1 0.0185792 0.151145 0.5 -0.20173 -0.740431
90 1 0.14418 0.181674 0.5 0.07309 -0.52886
91 1 0.959639 0.0117502 0.5 0.0153874 -0.939127
92 1 0.988014 0.36026 0.5 -0.0511385 -0.714174
93 1 0.135345 0.994617 0.5 -0.0342637 -0.700865
94 1 0.218008 0.00520953 0.5 -0.615563 -0.634719
95 1 0.0931996 0.16733 0.5 0.00964601 -0.81441
96 1 0.090099 0.215665 0.5 0.139463 -0.943457
97 1 0.056386 0.283497 0.5 0.300055 -0.852496
98 1 0.975383 0.980878 0.5 0.342253 -0.680979
99 1 0.119095 0.0789424 0.5 0.155301 -0.965205
100 1 0.13014 0.191266 0.5 0.734847 0.121708
101 1 0.110466 0.122373 0.5 -0.320951 -0.69586
102 1 0.147821 0.1972 0.5 -0.0342898 -0.845006
103 1 0.134291 0.00622408 0.5 -0.426209 -0.844948
104 1 0.13251 0.333096 0.5 0.40017 -0.408337
105 1 0.00509105 0.0518473 0.5 0.0520099 -0.18912
106 1 0.120376 0.189497 0.5 0.460063 0.417229
107 1 0.128462 0.0759934 0.5 -0.2141 -0.93323
108 1 0.161993 0.222069 0.5 0.229173 -0.882995
109 1 0.251316 0.974938 0.5 -0.134156 -0.777256
110 1 0.247937 0.207354 0.5 0.0986353 -0.942684
111 1 0.107187 0.182798 0.5 -0.479325 -0.660865
112 1 0.112791 0.206183 0.5 0.231174 -0.154493
113 1 0.170566 0.285435 0.5 0.125017 -0.434897
114 1 0.258493 0.205541 0.5 -0.029058 -0.864231
115 1 0.0518761 0.29394 0.5 0.244363 -0.708093
116 1 0.0794483 0.143563 0.5 -0.524995 -0.64735
117 1 0.117925 0.295037 0.5 0.377098 -0.663337
118 1 0.142937 0.135517 0.5 0.0386849 -0.446144
119 1 0.124669 0.143181 0.5 -0.0675908 -0.466272
120 1 0.139883 0.191159 0.5 0.326176 -0.575021
121 1 0.0296355 0.147969 0.5 0.253586 -0.797477
122 1 0.0496615 0.275025 0.5 -0.0851649 -0.809511
123 1 0.155955 0.271226 0.5 0.729446 -0.552604
124 1 0.0106456 0.110138 0.5 -0.0651761 -0.946803
125 1 0.900575 0.980597 0.5 0.0164653 -0.816666
126 1 0.991437 0.114987 0.5 -0.0464257 -0.808793
127 1 0.217792 0.0536312 0.5 -0.164442 -0.923755
128 1 0.143225 0.281907 0.5 0.282988 -0.781534
129 1 0.261193 0.147587 0.5 0.20121 -0.857843
130 1 0.100018 0.214341 0.5 0.295032 -0.576002
131 1 0.24591 0.218013 0.5 -0.0972671 -0.849056
132 1 0.0488047 0.0137055 0.5 0.531581 -0.388014
133 1 0.0657816 0.0580554 0.5 -0.488387 -0.52858
134 1 0.138615 0.163521 0.5 -0.187049 0.442966
135 1 0.0339134 0.223249 0.5 -0.225226 -0.681736
136 1 0.911608 0.0556982 0.5 0.171325 -0.779505
137 1 0.946798 0.196743 0.5 -0.251872 -0.744501
138 1 0.235268 0.219796 0.5 -0.256054 -0.657572
139 1 0.0815188 0.0826238 0.5 -0.359422 -0.864884
140 1 0.0114646 0.196812 0.5 -0.659014 -0.726334
141 1 0.121099 0.238135 0.5 0.0966496 0.755926
142 1 0.190923 0.00436411 0.5 0.00177933 -0.676701
143 1 0.112613 0.443992 0.5 0.0909071 -0.701777
144 1 0.110009 0.996855 0.5 -0.487979 -0.717596
145 1 0.0577029 0.0520098 0.5 -0.0738171 -0.357996
146 1 0.0831458 0.170185 0.5 -0.205373 -0.841477
147 1 0.128347 0.342629 0.5 0.889645 -0.15485
148 1 0.154317 0.32852 0.5 0.131481 0.218609
149 1 0.133991 0.301301 0.5 0.468302 0.0432002
150 1 0.134098 0.102848 0.5 -0.385397 -0.746394
151 1 0.127254 0.208623 0.5 -0.337006 0.841706
152 1 0.990074 0.0783063 0.5 -0.235916 -0.777631
153 1 0.0514986 0.145123 0.5 -0.0949538 -0.59202
154 1 0.982282 0.0979065 0.5 -0.359785 -0.639338
155 1 0.144498 0.155732 0.5 0.123484 0.760803
156 1 0.988411 0.202659 0.5 0.26251 -0.813351
157 1 0.973821 0.990573 0.5 0.0284144 -0.910942
158 1 0.0874264 0.188061 0.5 0.300724 -0.905397
159 1 0.028749 0.214816 0.5 0.132458 -0.110157
160 1 0.0732418 0.173836 0.5 -0.306237 -0.896374
161 1 0.0396281 0.146539 0.5 0.545554 -0.748815
162 1 0.990311 0.997508 0.5 0.032273 -0.45321
163 1 0.112605 0.0247828 0.5 -0.356751 -0.748796
164 1 0.102106 0.233731 0.5 0.760565 0.0821042
165 1 0.0465461 0.0756429 0.5 -0.594181 -0.668953
166 1 0.944661 0.969352 0.5 0.00914661 -0.546873
167 1 0.235946 0.260424 0.5 -0.0189458 -0.706252
168 1 0.998598 0.0848494 0.5 0.100268 -0.772478
169 1 0.300533 0.143467 0.5 0.0727827 -0.974999
170 1 0.974642 0.0655268 0.5 -0.0588199 -0.904628
171 1 0.115246 0.0614214 0.5 -0.420071 -0.749857
172 1 0.0397085 0.305173 0.5 0.111309 -0.859842
173 1 0.0549917 0.216735 0.5 -0.08309 -0.808278
174 1 0.0684991 0.0948018 0.5 -0.315045 -0.760128
175 1 0.0997882 0.175794 0.5 -0.238371 -0.652739
176 1 0.985196 0.260594 0.5 -0.421618 -0.835071
177 1 0.0749301 0.353276 0.5 -0.263546 -0.756246
178 1 0.308249 0.177413 0.5 0.0610808 -0.123278
179 1 0.114656 0.306857 0.5 0.144389 -0.837397
180 1 0.19053 0.175972 0.5 -0.120932 -0.919191
181 1 0.154592 0.204056 0.5 -0.0697309 -0.73961
182 1 0.000636223 0.139816 0.5 -0.174315 -0.353357
183 1 0.0513495 0.0919787 0.5 -0.445053 -0.788796
184 1 0.249588 0.0807678 0.5 -0.403588 -0.822643
185 1 0.014256 0.136362 0.5 -0.267911 -0.754234
186 1 0.899047 0.287195 0.5 0.254797 -0.586022
187 1 0.112401 0.0714113 0.5 -0.088223 -0.79792
188 1 0.148401 0.0679356 0.5 -0.601491 -0.657628
189 1 0.139717 0.119637 0.5 -0.0609435 -0.828666
190 1 0.0407707 0.267748 0.5 -0.365401 -0.836178
191 1 0.971694 0.236029 0.5 -0.31397 -0.889511
192 1 0.189836 0.224709 0.5 0.042349 -0.83362
193 1 0.0526024 0.135631 0.5 -0.30895 -0.651948
194 1 0.0546202 0.245133 0.5 0.0166443 -0.922745
195 1 0.108724 0.298476 0.5 0.211115 -0.766921
196 1 0.202354 0.305157 0.5 0.192152 -0.726077
197 1 0.0221852 0.141917 0.5 -0.0717434 -0.817816
198 1 0.162547 0.279482 0.5 0.0561737 -0.630271
199 1 0.126075 0.0863367 0.5 -0.383457 -0.70198
200 1 0.097068 0.134386 0.5 -0.400852 -0.397737
201 1 0.972441 0.883324 0.5 -0.289177 -0.778611
202 1 0.15372 0.176173 0.5 -0.0847025 -0.725749
203 1 0.0698942 0.306923 0.5 -0.188588 -0.693358
204 1 0.892966 0.214133 0.5 -0.542811 -0.675431
205 1 0.164156 0.345781 0.5 -0.35605 0.117178
206 1 0.208908 0.105025 0.5 -0.000530105 -0.863674
207 1 0.0884367 0.148937 0.5 -0.727428 -0.573208
208 1 0.0990419 0.00179293 0.5 -0.362373 -0.462882
209 1 0.143106 0.0513822 0.5 -0.342339 -0.916228
210 1 0.151536 0.290113 0.5 0.265377 -0.39123
211 1 0.00493928 0.18107 0.5 -0.480445 -0.399266
212 1 0.16639 0.240014 0.5 -0.0561617 -0.958758
213 1 0.0304001 0.186904 0.5 -0.211134 -0.441579
214 1 0.158642 0.122841 0.5 -0.481404 -0.711202
215 1 0.173382 0.209331 0.5 0.00294984 -0.870918
216 1 0.961469 0.239832 0.5 -0.523261 -0.716636
217 1 0.911362 0.256742 0.5 0.0401727 -0.992201
218 1 0.0134531 0.186115 0.5 -0.710465 -0.42839
219 1 0.145488 0.206515 0.5 -0.53447 -0.638343
220 1 0.987807 0.0519665 0.5 -0.676287 -0.493796
221 1 0.102676 0.253891 0.5 0.0787158 -0.67399
222 1 0.0548825 0.169641 0.5 -0.361062 -0.748434
223 1 0.0301577 0.202634 0.5 -0.0520456 -0.276092
224 1 0.179455 0.152427 0.5 -0.194798 -0.909541
225 1 0.134644 0.0917533 0.5 -0.669003 -0.503062
226 1 0.234683 0.230044 0.5 -0.291923 -0.181133
227 1 0.159338 0.194278 0.5 -0.0461326 -0.832868
228 1 0.145463 0.0402239 0.5 -0.482061 -0.816078
229 1 0.114988 0.196913 0.5 0.0230024 0.248203
230 1 0.0127612 0.226382 0.5 0.625851 -0.57944
231 1 0.118544 0.0400689 0.5 -0.535411 -0.709551
232 1 0.023757 0.265163 0.5 -0.305921 -0.792072
233 1 0.13573 0.129009 0.5 -0.215955 -0.785341
234 1 0.0181322 0.234243 0.5 0.230875 -0.401519
235 1 0.105744 0.153756 0.5 0.143689 -0.823081
236 1 0.0986557 0.26355 0.5 0.0419086 -0.677982
237 1 0.140053 0.0624031 0.5 -0.413128 -0.619033
238 1 0.0436079 0.173836 0.5 -0.613936 -0.68236
239 1 0.185633 0.245293 0.5 0.329468 -0.584775
240 1 0.247461 0.0932758 0.5 -0.116158 -0.704791
241 1 0.129191 0.266706 0.5 0.453336 -0.713252
242 1 0.0808144 0.257741 0.5 -0.00870101 -0.83352
243 1 0.178693 0.188134 0.5 0.0392995 -0.90925
244 1 0.107732 0.225634 0.5 0.643662 0.0569936
245 1 0.0446671 0.163094 0.5 -0.601115 -0.705527
246 1 0.187828 0.317971 0.5 0.132921 -0.819173
247 1 0.981257 0.0343336 0.5 0.095987 -0.944807
248 1 0.212961 0.199147 0.5 0.299094 -0.863934
249 1 0.92141 0.213204 0.5 -0.10488 -0.722354
250 1 0.0258073 0.132159 0.5 -0.189286 -0.714136
251 1 0.944025 0.111408 0.5 -0.284293 -0.878251
252 1 0.00964913 0.992441 0.5 0.522402 -0.596257
253 1 0.181566 0.0104294 0.5 0.231381 -0.257106
254 1 0.076971 0.229054 0.5 -0.174644 -0.549117
255 1 0.0245628 0.00813842 0.5 0.458594 -0.460759
256 1 0.116403 0.0518811 0.5 -0.615903 -0.732928
257 1 0.136814 0.274055 0.5 0.223861 -0.822434
258 1 0.0360555 0.129461 0.5 0.166258 -0.962349
259 1 0.859326 0.336806 0.5 -0.0982051 -0.362739
260 1 0.967364 0.181108 0.5 -0.214461 -0.859204
261 1 0.135189 0.0443971 0.5 -0.436634 -0.834122
262 1 0.963241 0.152898 0.5 -0.529034 -0.830398
263 1 0.0332881 0.101914 0.5 -0.495296 -0.461248
264 1 0.0119577 0.042277 0.5 0.2008 0.453024
265 1 0.000296644 0.994822 0.5 0.0447747 -0.498825
266 1 0.00568691 0.218845 0.5 0.284567 -0.904677
267 1 0.201847 0.281133 0.5 0.252819 -0.576315
268 1 0.132871 0.253083 0.5 -0.231253 0.437315
269 1 0.0716884 0.249076 0.5 -0.308318 -0.677397
270 1 0.0700004 0.183516 0.5 -0.0840083 -0.940042
271 1 0.237921 0.251111 0.5 0.265645 -0.696664
272 1 0.957946 0.223059 0.5 -0.0520705 -0.884789
273 1 0.212465 0.0720279 0.5 -0.239159 -0.504351
274 1 0.223962 0.0714437 0.5 -0.216667 -0.741663
275 1 0.101766 0.0280333 0.5 -0.348518 -0.659107
276 1 0.0330174 0.232863 0.5 0.0255233 -0.323135
277 1 0.0226499 0.301348 0.5 -0.277159 -0.895532
278 1 0.15288 0.280669 0.5 0.360783 -0.760855
279 1 0.998626 0.173924 0.5 0.478088 -0.382647
280 1 0.152145 0.00827178 0.5 -0.529827 -0.565514
281 1 0.972388 0.197428 0.5 0.0666228 -0.971281
282 1 0.973347 0.264903 0.5 -0.497516 -0.812229
283 1 0.190353 0.253593 0.5 0.634206 -0.639964
284 1 0.089803 0.0887992 0.5 -0.046326 -0.894772
285 1 0.0132955 0.0262469 0.5 0.682984 -0.0664059
286 1 0.0805052 0.132474 0.5 -0.255055 -0.357968
287 1 0.118661 0.151217 0.5 0.383838 -0.510594
288 1 0.115579 0.160339 0.5 0.447356 -0.241307
289 1 0.16395 0.138716 0.5 0.0544059 -0.438663
290 1 0.120359 0.0300778 0.5 -0.561907 -0.765986
291 1 0.960347 0.212552 0.5 -0.278337 -0.876476
292 1 0.204502 0.0279615 0.5 0.528238 -0.694759
293 1 0.202726 0.989727 0.5 0.0541226 -0.687069
294 1 0.989441 0.154846 0.5 -0.289277 -0.365522
295 1 0.153727 0.0477061 0.5 -0.4177 -0.787395
296 1 0.185099 0.301777 0.5 0.125 -0.884599
297 1 0.897949 0.0322431 0.5 -0.361971 -0.758553
298 1 0.123747 0.258119 0.5 0.242593 -0.449846
299 1 0.990474 0.970081 0.5 0.697038 -0.707522
300 1 0.968852 0.0490615 0.5 -0.0482625 -0.846865
301 1 0.170062 0.181294 0.5 -0.0176805 -0.905777
302 1 0.222104 0.985431 0.5 -0.411225 -0.835999
303 1 0.934818 0.115123 0.5 -0.232502 -0.895812
304 1 0.0560518 0.0720449 0.5 -0.602767 -0.755034
305 1 0.222818 0.245568 0.5 0.289066 -0.745164
306 1 0.800897 0.124715 0.5 0.0512053 -0.956936
307 1 0.156731 0.167004 0.5 0.232036 -0.561369
308 1 0.136908 0.42516 0.5 0.0898138 -0.774484
309 1 0.0753779 0.200023 0.5 -0.0149491 -0.948392
310 1 0.178968 0.0580731 0.5 -0.397512 -0.729188
311 1 0.860131 0.965674 0.5 -0.0919504 -0.792637
312 1 0.241993 0.268456 0.5 0.222119 -0.778388
313 1 0.232282 0.980487 0.5 -0.341503 -0.781277
314 1 0.118256 0.127939 0.5 -0.816093 -0.504328
315 1 0.0657875 0.167443 0.5 -0.289642 -0.857989
316 1 0.20653 0.117885 0.5 -0.189002 -0.822739
317 1 0.154583 0.340868 0.5 -0.703256 0.57403
318 1 0.967571 0.480858 0.5 -0.381048 -0.818326
319 1 0.0444197 0.323575 0.5 0.369403 -0.846559
320 1 0.963119 0.553183 0.5 0.319805 -0.410507
321 1 0.00662985 0.430846 0.5 0.33237 -0.805002
322 1 0.122855 0.335144 0.5 0.70718 -0.232594
323 1 0.110905 0.352188 0.5 0.0870782 -0.554444
324 1 0.118874 0.325916 0.5 0.525809 -0.326282
325 1 0.0941807 0.34852 0.5 0.168302 -0.945921
326 1 0.0749684 0.4037 0.5 -0.600567 0.261261
327 1 0.972508 0.275166 0.5 -0.362783 -0.833633
328 1 0.0290624 0.452211 0.5 0.0863889 -0.947868
329 1 0.0784315 0.3337 0.5 0.300684 -0.832426
330 1 0.0373055 0.315701 0.5 0.0652004 -0.910981
331 1 0.284511 0.287623 0.5 -0.257628 -0.353711
332 1 0.134792 0.474796 0.5 -0.116583 -0.756609
333 1 0.0158322 0.463653 0.5 -0.230506 -0.702321
334 1 0.111822 0.425037 0.5 -0.449501 0.0969614
335 1 0.0932377 0.46101 0.5 0.039956 -0.312517
336 1 0.0683253 0.2695 0.5 -0.178392 -0.860593
337 1 0.041334 0.334738 0.5 0.157878 -0.968059
338 1 0.245188 0.293846 0.5 0.177159 -0.680708
339 1 0.990034 0.388015 0.5 -0.0288249 -0.771573
340 1 0.299252 0.340058 0.5 -0.831089 -0.143399
341 1 0.209818 0.425475 0.5 -0.189128 -0.347476
342 1 0.11243 0.41534 0.5 -0.804178 -0.247076
343 1 0.14365 0.327391 0.5 0.189037 0.253449
344 1 0.0722323 0.325248 0.5 0.430538 -0.822777
345 1 0.140358 0.311319 0.5 0.588497 -0.494195
346 1 0.114384 0.531071 0.5 0.15385 -0.922785
347 1 0.0296122 0.490658 0.5 -0.527334 -0.521611
348 1 0.0850772 0.400283 0.5 -0.783052 -0.339969
349 1 0.071998 0.297228 0.5 -0.384228 -0.773842
350 1 0.254518 0.292487 0.5 0.755238 -0.440002
351 1 0.0473183 0.418864 0.5 -0.810225 -0.474362
352 1 0.0828903 0.323624 0.5 0.586208 -0.791356
353 1 0.105831 0.310069 0.5 0.468569 -0.58421
354 1 0.092004 0.546802 0.5 0.325916 -0.914692
355 1 0.0660802 0.421095 0.5 -0.91601 -0.314759
356 1 0.231219 0.202214 0.5 -0.0527791 -0.798881
357 1 0.0237439 0.435101 0.5 -0.389325 -0.914369
358 1 0.975542 0.438739 0.5 -0.597365 -0.624787
359 1 0.146342 0.423055 0.5 0.366385 -0.805315
360 1 0.114241 0.39377 0.5 -0.401809 -0.0979277
361 1 0.153039 0.432048 0.5 0.122234 -0.861586
362 1 0.28139 0.339885 0.5 0.154658 -0.137245
363 1 0.00643853 0.297727 0.5 0.222457 -0.183306
364 1 0.0565959 0.405506 0.5 -0.504663 0.31637
365 1 0.187767 0.386427 0.5 -0.554422 -0.26771
366 1 0.0651604 0.399638 0.5 -0.637894 0.539424
367 1 0.140564 0.377508 0.5 0.264922 -0.570273
368 1 0.145478 0.358848 0.5 -0.861612 -0.141016
369 1 0.0990472 0.366841 0.5 -0.154183 -0.30781
370 1 0.162112 0.500282 0.5 0.26684 -0.826249
371 1 0.0461025 0.428133 0.5 -0.32178 -0.757626
372 1 0.112649 0.403119 0.5 -0.587736 -0.125811
373 1 0.143658 0.434292 0.5 0.123397 -0.904181
374 1 0.0816667 0.361827 0.5 -0.288848 -0.785627
375 1 0.274917 0.135089 0.5 -0.146891 -0.543917
376 1 0.208826 0.50907 0.5 0.458558 0.275523
377 1 0.0861268 0.389553 0.5 -0.673314 -0.542227
378 1 0.226114 0.236279 0.5 -0.225169 -0.605871
379 1 0.122879 0.440831 0.5 -0.311928 -0.882318
380 1 0.160675 0.396747 0.5 0.215774 0.682278
381 1 0.0854134 0.566329 0.5 -0.392544 -0.784783
382 1 0.927913 0.378203 0.5 0.000482493 -0.528793
383 1 0.119527 0.380324 0.5 0.619194 -0.57913
384 1 0.104511 0.409606 0.5 -0.721109 0.302136
385 1 0.12971 0.169389 0.5 0.219103 0.229772
386 1 0.0781652 0.485547 0.5 -0.0349184 -0.966057
387 1 0.125897 0.466361 0.5 -0.116538 -0.639595
388 1 0.162948 0.251033 0.5 0.184195 -0.805866
389 1 0.963451 0.384345 0.5 -0.313521 -0.830268
390 1 0.225654 0.505504 0.5 0.426094 0.690667
391 1 0.0864694 0.313196 0.5 0.351436 -0.781497
392 1 0.0599126 0.377861 0.5 0.642656 -0.673401
393 1 0.00807888 0.391717 0.5 -0.49875 -0.417004
394 1 0.0486131 0.493172 0.5 -0.0497478 -0.539299
395 1 0.141965 0.406709 0.5 -0.161276 -0.755525
396 1 0.935044 0.55069 0.5 -0.081781 -0.656031
397 1 0.114539 0.433851 0.5 0.165486 -0.113351
398 1 0.123284 0.351427 0.5 0.728819 0.213186
399 1 0.020967 0.378149 0.5 -0.583679 -0.658475
400 1 0.226839 0.524484 0.5 0.698319 0.0283423
401 1 0.0652782 0.202335 0.5 -0.493647 -0.686347
402 1 0.982416 0.14483 0.5 0.13891 -0.631198
403 1 0.979886 0.514057 0.5 -0.0736215 -0.645827
404 1 0.165835 0.359308 0.5 -0.748671 -0.0843054
405 1 0.967423 0.364967 0.5 -0.00926782 -0.617919
406 1 0.133927 0.496228 0.5 -0.288389 -0.590651
407 1 0.0660079 0.356667 0.5 -0.19863 -0.636532
408 1 0.174387 0.363521 0.5 -0.844665 -0.313343
409 1 0.287698 0.348803 0.5 -0.22306 -0.0153265
410 1 0.076252 0.415858 0.5 -0.788957 -0.0195632
411 1 0.104323 0.431759 0.5 -0.598918 0.339861
412 1 0.108185 0.363226 0.5 -0.0348326 -0.514485
413 1 0.136684 0.552551 0.5 -0.14654 -0.927188
414 1 0.0892804 0.368495 0.5 -0.524967 -0.590481
415 1 0.122862 0.499095 0.5 -0.5827 -0.744905
416 1 0.211029 0.376074 0.5 -0.00164371 -0.814425
417 1 0.998994 0.497889 0.5 -0.151977 -0.7628
418 1 0.167823 0.269295 0.5 0.0635721 -0.789619
419 1 0.970159 0.391777 0.5 -0.00446037 -0.855994
420 1 0.0935022 0.292086 0.5 -0.163837 -0.493017
421 1 0.130574 0.447372 0.5 -0.45644 -0.72933
422 1 0.088977 0.265311 0.5 0.151538 -0.908243
423 1 0.145847 0.348735 0.5 -0.727962 -0.0847759
424 1 0.088803 0.303553 0.5 0.393847 -0.612216
425 1 0.0755641 0.314693 0.5 0.41593 -0.848138
426 1 0.0687661 0.335862 0.5 0.210809 -0.946083
427 1 0.065959 0.535985 0.5 0.133986 -0.870564
428 1 0.0558515 0.463253 0.5 0.117488 -0.523329
429 1 0.103553 0.390263 0.5 -0.491257 0.156643
430 1 0.0781175 0.559522 0.5 -0.0573148 -0.916673
431 1 0.0771162 0.668684 0.5 -0.314026 -0.794752
432 1 0.0938712 0.41627 0.5 -0.891299 0.185681
433 1 0.13033 0.38112 0.5 0.571092 -0.416006
434 1 0.0334546 0.469693 0.5 -0.010272 -0.902617
435 1 0.0384513 0.486328 0.5 -0.549891 -0.536899
436 1 0.267371 0.260947 0.5 -0.782609 -0.251768
437 1 0.0369394 0.391034 0.5 0.0449447 -0.983106
438 1 0.121322 0.539005 0.5 -0.0248337 -0.87296
439 1 0.170017 0.508882 0.5 -0.265537 -0.200674
440 1 0.0934858 0.447584 0.5 -0.603523 -0.570258
441 1 0.215538 0.267404 0.5 -0.331355 -0.920728
442 1 0.163608 0.334713 0.5 -0.466576 -0.390087
443 1 0.0114667 0.447382 0.5 0.20763 -0.928532
444 1 0.103602 0.345736 0.5 0.175718 -0.678319
445 1 0.049469 0.446079 0.5 -0.0272447 -0.660101
446 1 0.133103 0.371815 0.5 0.308 -0.388778
447 1 0.164426 0.430045 0.5 -0.577633 -0.558333
448 1 0.0790622 0.303579 0.5 0.352722 -0.619893
449 1 0.152608 0.518889 0.5 0.405974 0.123137
450 1 0.0422801 0.372357 0.5 0.177943 -0.957001
451 1 0.0101714 0.533743 0.5 0.137608 -0.982812
452 1 0.160392 0.573852 0.5 -0.22133 -0.571839
453 1 0.0385348 0.422736 0.5 -0.409985 -0.599807
454 1 0.954846 0.388673 0.5 -0.224019 -0.670261
455 1 0.993646 0.581589 0.5 -0.0257451 -0.962666
456 1 0.14509 0.3687 0.5 -0.418894 -0.518402
457 1 0.174962 0.330492 0.5 -0.430388 -0.840824
458 1 0.223404 0.313556 0.5 -0.586094 -0.286074
459 1 0.0597318 0.301045 0.5 -0.278543 -0.777023
460 1 0.00630508 0.516375 0.5 0.565003 -0.788331
461 1 0.0836622 0.409802 0.5 -0.728336 -0.11011
462 1 0.0351247 0.364262 0.5 -0.249469 -0.813633
463 1 0.0392347 0.534792 0.5 0.378146 -0.742342
464 1 0.121392 0.510508 0.5 -0.200253 -0.767092
465 1 0.18137 0.418603 0.5 -0.149524 0.207608
466 1 0.278669 0.255971 0.5 0.287274 -0.184658
467 1 0.17069 0.25766 0.5 -0.0622841 -0.866103
468 1 0.0384498 0.240938 0.5 0.23132 -0.629664
469 1 0.114643 0.493055 0.5 -0.812891 -0.509979
470 1 0.104795 0.533782 0.5 0.161353 -0.954534
471 1 0.0472018 0.407964 0.5 -0.305047 -0.0648984
472 1 0.0921709 0.115727 0.5 0.81985 -0.380401
473 1 0.0550857 0.322447 0.5 -0.0207146 -0.712972
474 1 0.0288492 0.38329 0.5 -0.223902 -0.583482
475 1 0.116816 0.481733 0.5 -0.712461 -0.161062
476 1 0.120119 0.169545 0.5 0.829481 -0.140847
477 1 0.0367299 0.354258 0.5 -0.21826 -0.906133
478 1 0.0658783 0.431782 0.5 -0.401697 0.0834009
479 1 0.994306 0.257578 0.5 0.298139 -0.700987
480 1 0.132191 0.48396 0.5 0.0556279 -0.163257
481 1 0.0413675 0.440694 0.5 0.167885 -0.635381
482 1 0.05706 0.311775 0.5 -0.283203 -0.790929
483 1 0.103035 0.444107 0.5 -0.0867901 -0.680146
484 1 0.034296 0.401996 0.5 0.0733308 -0.165414
485 1 0.215482 0.318851 0.5 -0.769711 -0.381635
486 1 0.180074 0.379978 0.5 -0.429498 -0.576792
487 1 0.238625 0.489044 0.5 0.684749 0.5675
488 1 0.133521 0.436162 0.5 -0.231454 -0.702432
489 1 0.0662393 0.346603 0.5 -0.450367 -0.734206
490 1 0.0502752 0.304511 0.5 0.0954599 -0.817691
491 1 0.136791 0.320127 0.5 0.256262 -0.728522
492 1 0.12932 0.593445 0.5 0.26077 -0.858064
493 1 0.0292885 0.481255 0.5 -0.0970455 -0.350554
494 1 0.126969 0.36118 0.5 0.611866 0.45783
495 1 0.216468 0.189707 0.5 0.448797 -0.780772
496 1 0.0455568 0.247781 0.5 -0.181461 -0.981411
497 1 0.97052 0.532709 0.5 0.253011 -0.88903
498 1 0.141534 0.292813 0.5 0.258987 -0.0960395
499 1 0.949712 0.167773 0.5 -0.16695 -0.739785
500 1 0.161026 0.183639 0.5 -0.270346 -0.882104
501 1 0.00322223 0.477775 0.5 0.04487 -0.856877
502 1 0.0944769 0.39445 0.5 -0.870764 -0.350419
503 1 0.0194294 0.531397 0.5 0.0258636 -0.861443
504 1 0.080542 0.475968 0.5 -0.389249 -0.858282
505 1 0.180936 0.178848 0.5 -0.158341 -0.952061
506 1 0.98471 0.484966 0.5 -0.327016 -0.894906
507 1 0.16347 0.379354 0.5 -0.290244 0.269921
508 1 0.0745517 0.425828 0.5 -0.619448 0.145594
509 1 0.146833 0.46113 0.5 -0.0323059 -0.925375
510 1 0.135844 0.38962 0.5 0.584113 -0.561213
511 1 0.144962 0.493119 0.5 0.148959 -0.50704
512 1 0.151735 0.50157 0.5 0.577689 -0.733833
513 1 0.155293 0.384508 0.5 0.0348193 0.179813
514 1 0.97231 0.353567 0.5 0.179638 -0.759241
515 1 0.131863 0.535934 0.5 -0.0302733 -0.86275
516 1 0.130694 0.312712 0.5 0.188745 -0.749134
517 1 0.106691 0.462716 0.5 0.372811 -0.171658
518 1 0.0774308 0.445872 0.5 -0.796068 -0.318613
519 1 0.0969971 0.526286 0.5 -0.145945 -0.818547
520 1 0.99726 0.432342 0.5 0.579804 -0.797872
521 1 0.995778 0.405592 0.5 0.172799 -0.840905
522 1 0.173795 0.46984 0.5 -0.258537 -0.456523
523 1 0.00215439 0.3746 0.5 -0.00392812 -0.863829
524 1 0.191597 0.308671 0.5 0.0727286 -0.89723
525 1 0.0258901 0.425831 0.5 -0.00388362 -0.809217
526 1 0.103913 0.419848 0.5 -0.880491 0.0630842
527 1 0.0959208 0.309897 0.5 0.272134 -0.6604
528 1 0.161661 0.290049 0.5 0.125794 -0.333762
529 1 0.224724 0.362444 0.5 0.335917 -0.850745
530 1 0.110757 0.587367 0.5 -0.617265 -0.47562
531 1 0.199063 0.509332 0.5 0.608688 0.413695
532 1 0.0758871 0.457331 0.5 -0.408824 -0.734987
533 1 0.0154742 0.332073 0.5 -0.141747 -0.763325
534 1 0.0707535 0.514832 0.5 0.173415 -0.808493
535 1 0.0829494 0.208763 0.5 0.0848596 -0.917292
536 1 0.107739 0.476343 0.5 -0.897112 0.0916976
537 1 0.130773 0.505383 0.5 -0.453568 -0.703895
538 1 0.148606 0.450586 0.5 -0.0845029 -0.972918
539 1 0.0795627 0.659518 0.5 -0.0355688 -0.692253
540 1 0.20817 0.26074 0.5 0.182635 -0.78859
541 1 0.159802 0.412294 0.5 0.655763 -0.263251
542 1 0.234836 0.359887 0.5 0.231162 -0.960153
543 1 0.0364697 0.25052 0.5 -0.0304028 -0.968906
544 1 0.12945 0.546157 0.5 -0.284364 -0.887415
545 1 0.0668914 0.279696 0.5 -0.0412949 -0.803105
546 1 0.00917565 0.507434 0.5 0.220089 -0.778888
547 1 0.101973 0.204544 0.5 0.400067 -0.535663
548 1 0.176971 0.265874 0.5 -0.113146 -0.860097
549 1 0.125093 0.431712 0.5 -0.0728883 -0.35215
550 1 0.898832 0.439934 0.5 0.107014 -0.780806
551 1 0.0872537 0.493401 0.5 -0.0630002 -0.810195
552 1 0.142197 0.397267 0.5 -0.147457 -0.562958
553 1 0.0852758 0.420903 0.5 -0.9105 0.062108
554 1 0.129997 0.418107 0.5 -0.179318 -0.788457
555 1 0.232008 0.369923 0.5 -0.211787 -0.884605
556 1 0.0197669 0.41809 0.5 0.665515 -0.508514
557 1 0.156645 0.458562 0.5 -0.331769 -0.807791
558 1 0.106413 0.242381 0.5 0.145075 -0.336794
559 1 0.112232 0.286288 0.5 0.584862 -0.69225
560 1 0.0468493 0.285237 0.5 0.163234 -0.611768
561 1 0.258858 0.515159 0.5 -0.511112 -0.591209
562 1 0.178495 0.490693 0.5 -0.737785 -0.0712692
563 1 0.218846 0.354665 0.5 0.199491 -0.673652
564 1 0.0878413 0.557203 0.5 0.184639 -0.803504
565 1 0.0626866 0.585052 0.5 -0.56839 -0.432697
566 1 0.0895532 0.331416 0.5 0.218771 -0.93554
567 1 0.0559514 0.434971 0.5 -0.148937 -0.1475
568 1 0.930991 0.458015 0.5 -0.370426 -0.749121
569 1 0.0854938 0.430255 0.5 -0.86355 0.0657027
570 1 0.125303 0.476022 0.5 -0.415999 -0.397571
571 1 0.106829 0.487676 0.5 -0.750969 -0.529461
572 1 0.208547 0.312302 0.5 0.0243796 -0.444284
573 1 0.137583 0.233722 0.5 -0.294356 0.596925
574 1 0.153368 0.374563 0.5 -0.562501 -0.208966
575 1 0.177454 0.295665 0.5 0.156979 -0.836434
576 1 0.957933 0.473194 0.5 -0.291587 -0.251732
577 1 0.00753185 0.316955 0.5 -0.0171615 -0.20876
578 1 0.0187144 0.505581 0.5 -0.254406 -0.639531
579 1 0.108355 0.524226 0.5 -0.0929081 -0.814009
580 1 0.20515 0.240641 0.5 -0.0358994 -0.969188
581 1 0.145169 0.38623 0.5 0.432432 -0.445965
582 1 0.205538 0.324097 0.5 -0.0501846 -0.315924
583 1 0.0861795 0.237898 0.5 0.0543916 -0.685593
584 1 0.163201 0.369415 0.5 -0.734146 -0.159032
585 1 0.115203 0.568212 0.5 0.363668 -0.799238
586 1 0.241056 0.340695 0.5 -0.161219 -0.838028
587 1 0.0212012 0.27436 0.5 -0.106359 -0.911358
588 1 0.0189728 0.283617 0.5 0.0703027 -0.863092
589 1 0.111614 0.540591 0.5 -0.0930922 -0.918999
590 1 0.119278 0.225874 0.5 -0.27727 0.511947
591 1 0.0131506 0.372112 0.5 -0.210881 -0.883735
592 1 0.0221374 0.444436 0.5 -0.115131 -0.882063
593 1 0.0726533 0.394095 0.5 -0.100507 -0.0146583
594 1 0.176563 0.320416 0.5 0.0162363 -0.838811
595 1 0.129198 0.517416 0.5 -0.00760657 -0.481413
596 1 0.178864 0.504615 0.5 -0.203925 0.259348
597 1 0.153337 0.4688 0.5 0.0663982 -0.686115
598 1 0.216625 0.57932 0.5 0.913949 0.05688
599 1 0.23781 0.210121 0.5 0.0768182 -0.952188
600 1 0.163896 0.47422 0.5 -0.115788 -0.240143
601 1 0.142631 0.255135 0.5 -0.0280912 -0.00139505
602 1 0.153865 0.403856 0.5 0.463156 0.120142
603 1 0.254524 0.312132 0.5 0.565407 -0.0255397
604 1 0.167709 0.323662 0.5 -0.273984 -0.851723
605 1 0.151319 0.580393 0.5 -0.366639 -0.487429
606 1 0.279152 0.554644 0.5 -0.541737 -0.288797
607 1 0.105916 0.279104 0.5 0.128307 -0.804734
608 1 0.156028 0.422612 0.5 0.32188 -0.771537
609 1 0.128754 0.219439 0.5 -0.722552 0.500663
610 1 0.96832 0.4025 0.5 0.079862 -0.793174
611 1 0.172369 0.220639 0.5 -0.132502 -0.612214
612 1 0.0347368 0.431462 0.5 0.127503 -0.695475
613 1 0.0385742 0.344163 0.5 -0.0277983 -0.884791
614 1 0.100473 0.517561 0.5 -0.365893 -0.697532
615 1 0.108946 0.327249 0.5 -0.0326454 -0.493208
616 1 0.265279 0.329878 0.5 0.919159 0.326892
617 1 0.199196 0.390132 0.5 -0.402629 -0.377505
618 1 0.0863528 0.44078 0.5 -0.647402 -0.413396
619 1 0.0983544 0.481279 0.5 -0.499532 -0.599397
620 1 0.98369 0.340968 0.5 0.0636801 -0.748325
621 1 0.937662 0.504203 0.5 0.343716 -0.597104
622 1 0.0974341 0.490681 0.5 -0.305485 -0.873184
623 1 0.0952096 0.535871 0.5 -0.132527 -0.766551