ITEM: TIMESTEP
0
ITEM: NUMBER OF ATOMS
9359
ITEM: BOX BOUNDS pp pp pp
-5.8359999999999999e+01 5.8359999999999999e+01
-5.8359999999999999e+01 5.8359999999999999e+01
-5.0000000000000000e-01 5.0000000000000000e-01
ITEM: ATOMS id type xs ys zs c_002[1] c_002[2]
1 1 0.74575 0.939238 0.5 -0.619287 0.419956
2 1 0.361169 0.100895 0.5 -0.604048 -0.355049
3 1 0.0926516 0.994891 0.5 0.201761 0.00896645
4 1 0.678251 0.914607 0.5 -0.66643 -0.25631
5 1 0.455038 0.623958 0.5 0.397345 -0.640086
6 1 0.615848 0.980378 0.5 -0.388257 -0.310882
7 1 0.176083 0.573425 0.5 0.145392 -0.421082
8 1 0.167426 0.0203967 0.5 -0.907742 -0.316131
9 1 0.696348 0.81783 0.5 0.0633101 -0.251371
10 1 0.918586 0.0884626 0.5 0.47613 0.106161
11 1 0.680623 0.576638 0.5 -0.58519 0.428853
12 1 0.47668 0.583678 0.5 0.520274 -0.0319376
13 1 0.99107 0.0225181 0.5 -0.389127 -0.348189
14 1 0.750292 0.79452 0.5 0.910991 0.0401115
15 1 0.530248 0.389658 0.5 0.143646 0.654602
16 1 0.115959 0.324655 0.5 -0.358584 -0.0962208
17 1 0.0396934 0.910563 0.5 -0.179494 -0.580691
18 1 0.952348 0.810507 0.5 -0.659704 0.690674
19 1 0.568562 0.560236 0.5 0.470427 0.0708125
20 1 0.839523 0.528592 0.5 0.664804 0.63256
21 1 0.856641 0.787643 0.5 0.414479 0.00106057
22 1 0.981421 0.867522 0.5 0.359385 -0.546346
23 1 0.720703 0.0710997 0.5 -0.886135 0.322426
24 1 0.93089 0.0716378 0.5 0.686362 -0.343257
25 1 0.529484 0.378017 0.5 -0.400933 0.474698
26 1 0.557983 0.578431 0.5 0.614941 -0.435711
27 1 0.0531659 0.573167 0.5 -0.518402 0.517439
28 1 0.0116104 0.45517 0.5 0.096682 0.00681816
29 1 0.791922 0.955496 0.5 -0.273124 -0.511004
30 1 0.477715 0.410248 0.5 0.514299 -0.163699
31 1 0.523414 0.397345 0.5 -0.0302641 0.529541
32 1 0.763893 0.409331 0.5 -0.425534 0.436005
33 1 0.821597 0.183255 0.5 -0.0554324 -0.259683
34 1 0.682635 0.537831 0.5 0.269891 0.453569
35 1 0.859506 0.715419 0.5 0.130332 0.134499
36 1 0.708617 0.235592 0.5 -0.398368 0.422892
37 1 0.735279 0.148559 0.5 -0.139679 -0.0120975
38 1 0.11058 0.0424024 0.5 -0.637235 0.355519
39 1 0.763115 0.052063 0.5 -0.83262 0.0952112
40 1 0.788052 0.29194 0.5 0.105079 -0.293762
41 1 0.0415147 0.0129934 0.5 0.0880347 -0.210978
42 1 0.596812 0.366026 0.5 0.0430839 -0.712074
43 1 0.871161 0.701286 0.5 0.148657 -0.640608
44 1 0.930372 0.719983 0.5 0.0388743 0.487617
45 1 0.668046 0.356028 0.5 -0.703444 0.42853
46 1 0.101652 0.44108 0.5 0.296862 -0.164646
47 1 0.322664 0.778056 0.5 -0.647903 0.683826
48 1 0.874228 0.76524 0.5 -0.183792 -0.354496
49 1 0.160483 0.115034 0.5 0.243148 -0.0568951
50 1 0.492165 0.0171066 0.5 -0.136139 0.137885
51 1 0.261535 0.951951 0.5 0.22149 0.0460826
52 1 0.32463 0.0147276 0.5 0.685222 -0.0251096
53 1 0.68521 0.300645 0.5 0.231597 0.00903679
54 1 0.209175 0.523942 0.5 -0.802233 0.158006
55 1 0.954903 0.718455 0.5 -0.357198 0.528231
56 1 0.00654188 0.119965 0.5 0.290428 -0.554228
57 1 0.465467 0.545039 0.5 -0.260957 0.0441152
58 1 0.249127 0.763602 0.5 0.0776147 0.830425
59 1 0.309702 0.294971 0.5 -0.202643 -0.0417658
60 1 0.073433 0.803127 0.5 0.377863 -0.433512
61 1 0.353736 0.908337 0.5 0.289729 0.732027
62 1 0.499968 0.808867 0.5 -0.17705 -0.128818
63 1 0.392113 0.730402 0.5 0.225732 0.763201
64 1 0.715328 0.34452 0.5 -0.434516 -0.668947
65 1 0.359909 0.123052 0.5 -0.371509 -0.6125
66 1 0.297851 0.175844 0.5 0.299277 -0.650187
67 1 0.0388004 0.844514 0.5 -0.696486 0.317762
68 1 0.729735 0.0643696 0.5 -0.731561 0.485783
69 1 0.355298 0.976874 0.5 0.43969 -0.68773
70 1 0.253032 0.0187112 0.5 0 0
71 1 0.933973 0.550872 0.5 -0.326137 0.283788
72 1 0.933627 0.34271 0.5 0.17449 0.527433
73 1 0.811209 0.764812 0.5 -0.318566 0.178109
74 1 0.57749 0.657073 0.5 0.731627 0.0199346
75 1 0.230838 0.828439 0.5 -0.625996 -0.522536
76 1 0.646915 0.102729 0.5 0.86579 0.0563201
77 1 0.754693 0.988316 0.5 0.0411832 0.339357
78 1 0.986988 0.387496 0.5 -0.0571669 -0.539685
79 1 0.983332 0.831034 0.5 0.196597 -0.567884
80 1 0.53613 0.753476 0.5 -0.329086 0.387582
81 1 0.394541 0.382333 0.5 -0.0814148 0.370498
82 1 0.0733044 0.0630323 0.5 0.0943842 -0.460485
83 1 0.168559 0.353652 0.5 -0.521307 0.3856
84 1 0.583687 0.914383 0.5 -0.137398 -0.0663603
85 1 0.817377 0.861357 0.5 -0.711075 -0.276454
86 1 0.610551 0.670338 0.5 0.537698 0.361998
87 1 0.416595 0.35873 0.5 0.547151 0.546789
88 1 0.801065 0.860874 0.5 -0.528582 0.341667
89 1 0.0325619 0.802178 0.5 -0.614167 0.140902
90 1 0.934994 0.164374 0.5 0.33649 -0.557228
91 1 0.858058 0.47618 0.5 0.214665 0.768947
92 1 0.168184 0.480934 0.5 0.0562296 -0.316286
93 1 0.31667 0.476346 0.5 0.512682 0.361543
94 1 0.0380712 0.772135 0.5 -0.557249 0.682478
95 1 0.989355 0.764867 0.5 0.626722 -0.385426
96 1 0.793676 0.600215 0.5 -0.53326 -0.617854
97 1 0.786239 0.137859 0.5 -0.40137 0.0299502
98 1 0.274296 0.857093 0.5 0.00167792 0.569752
99 1 0.830741 0.447428 0.5 0.373992 -0.174832
100 1 0.957849 0.675194 0.5 0.61978 0.131178
101 1 0.59518 0.511205 0.5 -0.10031 -0.706891
102 1 0.552618 0.877592 0.5 -0.365994 0.494351
103 1 0.241364 0.177577 0.5 -0.308071 -0.10908
104 1 0.170311 0.908625 0.5 0.094374 -0.65845
105 1 0.754856 0.40487 0.5 -0.285455 -0.260084
106 1 0.19411 0.9497 0.5 -0.450043 -0.594769
107 1 0.87222 0.401607 0.5 0.309951 0.309466
108 1 0.988847 0.262698 0.5 0.439494 0.169442
109 1 0.928141 0.0332242 0.5 -0.557055 0.235021
110 1 0.0745708 0.425529 0.5 0.304105 0.597882
111 1 0.331513 0.0995226 0.5 0.350031 0.216625
112 1 0.671008 0.453784 0.5 -0.849986 -0.06958
113 1 0.287164 0.115679 0.5 -0.00202051 -0.0633137
114 1 0.842649 0.486988 0.5 -0.00877859 0.332373
115 1 0.0797264 0.212462 0.5 -0.0638624 0.444526
116 1 0.832796 0.715346 0.5 -0.129904 -0.282201
117 1 0.815044 0.794382 0.5 0.244318 -0.523295
118 1 0.662492 0.601504 0.5 0.0151216 0.353253
119 1 0.593268 0.305739 0.5 0.600418 -0.0601708
120 1 0.686038 0.634298 0.5 -0.132249 -0.962225
121 1 0.985036 0.0760468 0.5 -0.492762 -0.358257
122 1 0.863357 0.358869 0.5 -0.129116 0.0892036
123 1 0.369997 0.397206 0.5 0.0963861 0.0986382
124 1 0.216213 0.152599 0.5 0.316937 -0.498436
125 1 0.139511 0.405078 0.5 0 0
126 1 0.0968578 0.0951478 0.5 -0.49248 -0.715393
127 1 0.828402 0.620736 0.5 0.343863 0.675748
128 1 0.502618 0.262898 0.5 0.132926 0.403244
129 1 0.777877 0.695577 0.5 0.449629 0.482866
130 1 0.292347 0.267278 0.5 -0.198212 0.271208
131 1 0.893487 0.92478 0.5 -0.273356 -0.940763
132 1 0.330013 0.771266 0.5 -0.223022 0.755456
133 1 0.177391 0.0263223 0.5 -0.790401 0.114905
134 1 0.693349 0.12736 0.5 -0.629831 0.265249
135 1 0.31222 0.646341 0.5 0.29019 0.482477
136 1 0.328675 0.90446 0.5 0.300201 -0.243316
137 1 0.959702 0.779445 0.5 0.0764167 0.275163
138 1 0.262054 0.321877 0.5 0 0
139 1 0.479169 0.596162 0.5 0.171822 0.691891
140 1 0.23182 0.138867 0.5 0.162542 -0.804048
141 1 0.599701 0.184477 0.5 0.0146933 0.154318
142 1 0.328378 0.109112 0.5 0.145603 0.0656725
143 1 0.16052 0.854698 0.5 -0.255046 0.10215
144 1 0.801465 0.710524 0.5 -0.622456 0.408599
145 1 0.00135118 0.234766 0.5 -0.546124 0.26567
146 1 0.25869 0.157811 0.5 0.0781756 0.664974
147 1 0.180391 0.264341 0.5 0.463677 -0.647641
148 1 0.151855 0.0977734 0.5 -0.00613258 0.188441
149 1 0.345734 0.978998 0.5 0.659198 -0.342371
150 1 0.445585 0.06489 0.5 0.690291 0.16293
151 1 0.58966 0.253369 0.5 0.128731 0.464574
152 1 0.155723 0.674856 0.5 0.128492 0.242033
153 1 0.0775743 0.746743 0.5 -0.532595 0.161959
154 1 0.880188 0.258922 0.5 -0.00470192 0.704048
155 1 0.99152 0.431547 0.5 0.446608 0.387808
156 1 0.748418 0.71377 0.5 -0.666376 0.0144306
157 1 0.581887 0.270722 0.5 0.140265 -0.64599
158 1 0.549823 0.146675 0.5 -0.315549 -0.157888
159 1 0.64266 0.491484 0.5 0.709463 -0.215536
160 1 0.333787 0.831416 0.5 0.295322 -0.0438412
161 1 0.0333667 0.529997 0.5 -0.187199 0.148064
162 1 0.51337 0.704966 0.5 -0.581631 0.118715
163 1 0.993384 0.323732 0.5 0.72769 -0.286084
164 1 0.822127 0.628975 0.5 0.413211 0.381467
165 1 0.865208 0.435533 0.5 0.125735 -0.0354284
166 1 0.570582 0.986084 0.5 0.785078 -0.233373
167 1 0.200376 0.529308 0.5 -0.454077 -0.0930816
168 1 0.506775 0.430056 0.5 -0.0312903 0.356906
169 1 0.375728 0.388998 0.5 0.303721 -0.313409
170 1 0.460807 0.289023 0.5 -0.496491 -0.314282
171 1 0.482247 0.0900861 0.5 -0.210267 -0.149938
172 1 0.244584 0.107741 0.5 -0.152599 0.785547
173 1 0.0412324 0.521319 0.5 0.000441607 0.30778
174 1 0.887853 0.383112 0.5 0.261616 0.471955
175 1 0.848136 0.203919 0.5 0.85358 -0.145652
176 1 0.632388 0.0798907 0.5 -0.527822 0.408086
177 1 0.843773 0.826364 0.5 0.234967 -0.318484
178 1 0.272339 0.357217 0.5 0.154616 -0.178612
179 1 0.971407 0.601879 0.5 0.373957 0.725895
180 1 0.652502 0.443586 0.5 -0.758691 0.400674
181 1 0.0219897 0.433838 0.5 0.946579 -0.00971037
182 1 0.40474 0.58222 0.5 -0.784604 0.502393
183 1 0.569379 0.932333 0.5 0.276818 -0.34782
184 1 0.460535 0.480546 0.5 0.735475 -0.182545
185 1 0.201236 0.993433 0.5 0.240601 0.483668
186 1 0.207853 0.210102 0.5 0.186782 -0.621996
187 1 0.450741 0.572605 0.5 0.324546 -0.00641141
188 1 0.76432 0.399484 0.5 -0.0913825 -0.105021
189 1 0.575974 0.763597 0.5 -0.00585329 0.702432
190 1 0.197125 0.126885 0.5 0.109964 -0.479314
191 1 0.205628 0.944372 0.5 -0.305693 0.322594
192 1 0.38575 0.898513 0.5 -0.454585 0.357836
193 1 0.816723 0.476811 0.5 0.643292 -0.503439
194 1 0.298803 0.108725 0.5 -0.529856 -0.0767271
195 1 0.955545 0.542322 0.5 0.384663 -0.535471
196 1 0.588407 0.0593801 0.5 -0.0870557 0.641376
197 1 0.688428 0.243773 0.5 0.241286 -0.102583
198 1 0.116842 0.0809292 0.5 0.848831 -0.026145
199 1 0.683507 0.0876331 0.5 0.328022 0.77302
200 1 0.602691 0.907376 0.5 0 0
201 1 0.225938 0.918497 0.5 0.796101 0.299909
202 1 0.994117 0.395654 0.5 0.388258 -0.903525
203 1 0.914668 0.552527 0.5 -0.443798 0.388038
204 1 0.393105 0.0399742 0.5 -0.274114 -0.652689
205 1 0.958292 0.0136851 0.5 -0.659467 0.229132
206 1 0.977763 0.209628 0.5 0.160057 -0.216124
207 1 0.261248 0.256721 0.5 -0.373216 -0.0157409
208 1 0.0324585 0.4337 0.5 0.919605 -0.0421986
209 1 0.543865 0.343892 0.5 -0.130115 0.841615
210 1 0.469748 0.503294 0.5 -0.629131 -0.676742
211 1 0.694067 0.164344 0.5 -0.308532 -0.319398
212 1 0.058442 0.0899035 0.5 0.579858 0.33561
213 1 0.79268 0.544201 0.5 -0.595978 0.506404
214 1 0.261116 0.88728 0.5 -0.922175 0.0611574
215 1 0.166132 0.234773 0.5 -0.193244 -0.313847
216 1 0.335189 0.978263 0.5 0.593308 -0.354642
217 1 0.305967 0.908749 0.5 0.130088 -0.0481568
218 1 0.193344 0.60772 0.5 0.0621553 0.261145
219 1 0.0841851 0.734147 0.5 0.362805 -0.479251
220 1 0.321087 0.23931 0.5 0.5392 -0.538312
221 1 0.135494 0.810664 0.5 -0.18419 -0.265505
222 1 0.850229 0.283447 0.5 0.0766437 0.386706
223 1 0.846784 0.0116375 0.5 0.0656767 -0.224961
224 1 0.92241 0.663502 0.5 -0.149608 -0.286501
225 1 0.459021 0.593725 0.5 0.504154 0.192003
226 1 0.532377 0.901659 0.5 -0.463277 0.313691
227 1 0.396233 0.133744 0.5 -0.220863 0.951815
228 1 0.672483 0.339662 0.5 0.693207 0.0329788
229 1 0.475069 0.530201 0.5 -0.671711 -0.483588
230 1 0.978976 0.412267 0.5 0.391815 0.290199
231 1 0.549165 0.198683 0.5 0.262583 -0.164431
232 1 0.677639 0.747039 0.5 0.373221 0.446517
233 1 0.157268 0.48507 0.5 -0.18488 -0.817419
234 1 0.787447 0.659216 0.5 0.287615 0.123479
235 1 0.336897 0.884631 0.5 -0.210501 0.676172
236 1 0.870556 0.871949 0.5 0.475353 0.482701
237 1 0.133094 0.566485 0.5 -0.706037 0.506023
238 1 0.93091 0.760401 0.5 -0.628292 -0.298979
239 1 0.697019 0.417649 0.5 -0.398434 0.0400356
240 1 0.2301 0.985742 0.5 0.351289 -0.116593
241 1 0.0668052 0.627145 0.5 0.127146 0.576119
242 1 0.88187 0.771566 0.5 -0.61933 -0.296861
243 1 0.61643 0.0564716 0.5 0.5872 -0.0467224
244 1 0.295549 0.184885 0.5 0.443381 -0.702443
245 1 0.573072 0.79456 0.5 -0.486299 0.000805086
246 1 0.0984223 0.964429 0.5 -0.330305 -0.0271414
247 1 0.906932 0.61412 0.5 0.187989 -0.134463
248 1 0.834503 0.0935031 0.5 0.675086 0.515003
249 1 0.105094 0.401737 0.5 0.285955 -0.263003
250 1 0.856232 0.36673 0.5 0.157023 0.906284
251 1 0.381528 0.934253 0.5 0.309429 -0.428631
252 1 0.183239 0.933799 0.5 -0.0212965 0.012623
253 1 0.905485 0.524176 0.5 0.0833221 -0.415265
254 1 0.912444 0.0154582 0.5 0.693446 -0.462463
255 1 0.386395 0.974926 0.5 0.65131 0.328892
256 1 0.576775 0.993121 0.5 0.296136 -0.295073
257 1 0.0713302 0.993604 0.5 0.810259 -0.39813
258 1 0.142762 0.647557 0.5 -0.188995 0.557069
259 1 0.785297 0.192893 0.5 -0.206481 0.293061
260 1 0.403643 0.915927 0.5 0.633902 -0.543328
261 1 0.321775 0.828332 0.5 -0.0563879 0.325074
262 1 0.533998 0.977704 0.5 0.175897 -0.538346
263 1 0.706491 0.348046 0.5 -0.857109 -0.463443
264 1 0.0711362 0.813732 0.5 0.319005 -0.502928
265 1 0.814165 0.111485 0.5 0.420758 0.515322
266 1 0.763928 0.611439 0.5 0.155843 0.32409
267 1 0.166304 0.919943 0.5 0.247971 -0.918035
268 1 0.261644 0.381232 0.5 0.427095 0.156956
269 1 0.870885 0.0802061 0.5 0.186526 0.105746
270 1 0.779963 0.715034 0.5 -0.362039 0.0114608
271 1 0.606574 0.972415 0.5 0.0724139 -0.244767
272 1 0.00174948 0.946166 0.5 -0.589128 -0.290405
273 1 0.184026 0.0431189 0.5 -0.00948639 -0.548697
274 1 0.370907 0.936763 0.5 0.45589 -0.519518
275 1 0.959213 0.00245295 0.5 0.134026 -0.494184
276 1 0.929075 0.222372 0.5 0.0615684 0.260706
277 1 0.748514 0.657218 0.5 -0.0968477 0.544891
278 1 0.894809 0.0712627 0.5 -0.178725 -0.584242
279 1 0.808706 0.333506 0.5 -0.257108 -0.183118
280 1 0.147472 0.869996 0.5 0.784882 0.502525
281 1 0.646202 0.268773 0.5 0.726124 0.369328
282 1 0.0684773 0.341566 0.5 -0.367117 0.470634
283 1 0.257205 0.00132367 0.5 0.164599 0.108068
284 1 0.846439 0.168334 0.5 -0.112539 -0.66427
285 1 0.129316 0.482357 0.5 0 0
286 1 0.554077 0.189636 0.5 0.444351 -0.161283
287 1 0.085032 0.0782809 0.5 0.522134 -0.402557
288 1 0.775696 0.215298 0.5 0.555463 -0.166299
289 1 0.905391 0.349595 0.5 0.662235 0.309617
290 1 0.78281 0.986712 0.5 0.116232 -0.0990943
291 1 0.761463 0.00765697 0.5 -0.0709185 0.683881
292 1 0.255976 0.417404 0.5 0.0225843 -0.314376
293 1 0.51119 0.564236 0.5 -0.662958 0.0403169
294 1 0.25181 0.324618 0.5 0.222309 -0.170004
295 1 0.0978243 0.570978 0.5 -0.493718 0.806694
296 1 0.408198 0.219218 0.5 -0.387563 -0.634211
297 1 0.314856 0.890706 0.5 -0.498376 0.0676335
298 1 0.940169 0.0463661 0.5 -0.214326 0.204418
299 1 0.747967 0.324747 0.5 -0.357675 -0.743371
300 1 0.570757 0.7164 0.5 -0.466849 0.0890273
301 1 0.273389 0.929445 0.5 0.162128 0.544195
302 1 0.676391 0.545046 0.5 -0.419035 0.452953
303 1 0.409685 0.956537 0.5 -0.363969 0.373806
304 1 0.304008 0.322737 0.5 0.636269 0.0178023
305 1 0.794288 0.425353 0.5 -0.0214197 -0.442656
306 1 0.188903 0.881809 0.5 -0.0491417 0.505178
307 1 0.800284 0.898164 0.5 0.464664 0.103188
308 1 0.878271 0.863999 0.5 0.0827323 0.494829
309 1 0.69245 0.0497293 0.5 0.735076 -0.570377
310 1 0.504971 0.661936 0.5 0.503064 -0.633194
311 1 0.609433 0.27785 0.5 0.340263 0.631878
312 1 0.102123 0.541091 0.5 -0.439433 0.430776
313 1 0.981111 0.46198 0.5 0.536212 0.510948
314 1 0.531332 0.486499 0.5 -0.552815 0.498941
315 1 0.85008 0.759748 0.5 0.0706485 0.789082
316 1 0.501006 0.558082 0.5 -0.643571 -0.0824013
317 1 0.29338 0.341453 0.5 -0.0356629 0.513851
318 1 0.770471 0.427639 0.5 0.195512 0.115875
319 1 0.96377 0.560563 0.5 -0.350453 0.7135
320 1 0.0695867 0.361934 0.5 0 0
321 1 0.346314 0.165255 0.5 -0.310976 0.129402
322 1 0.55598 0.67985 0.5 0.42566 0.554838
323 1 0.27681 0.0668411 0.5 -0.327653 -0.0150451
324 1 0.559373 0.150198 0.5 0 0
325 1 0.515596 0.347797 0.5 -0.379217 -0.251177
326 1 0.0757076 0.182756 0.5 -0.471452 0.633979
327 1 0.967499 0.731396 0.5 -0.202967 -0.0376507
328 1 0.0195055 0.625739 0.5 -0.197598 -0.109803
329 1 0.858736 0.561375 0.5 0.411909 -0.683778
330 1 0.971474 0.256959 0.5 -0.647596 -0.647189
331 1 0.576712 0.977755 0.5 0.740939 -0.403248
332 1 0.849708 0.817177 0.5 0.341568 0.309374
333 1 0.811827 0.415855 0.5 -0.197431 -0.0538433
334 1 0.554451 0.0953176 0.5 0.360624 -0.406531
335 1 0.103576 0.390577 0.5 0.194055 -0.423071
336 1 0.331227 0.601089 0.5 -0.360904 -0.265029
337 1 0.183504 0.394665 0.5 0.51819 0.220467
338 1 0.846127 0.605317 0.5 -0.105859 -0.63355
339 1 0.283143 0.42725 0.5 0.0491773 -0.78402
340 1 0.492893 0.297698 0.5 0.201613 0.420791
341 1 0.84175 0.288985 0.5 -0.219991 0.772436
342 1 0.0481843 0.514094 0.5 -0.0546751 0.354787
343 1 0.0950811 0.0762132 0.5 0.484718 -0.0516803
344 1 0.475856 0.804758 0.5 -0.258595 -0.120607
345 1 0.259218 0.142382 0.5 -0.601961 -0.585359
346 1 0.668272 0.883006 0.5 0.680019 0.0735842
347 1 0.239047 0.31699 0.5 -0.452247 0.496843
348 1 0.802183 0.66575 0.5 -0.139852 -0.0170778
349 1 0.86084 0.892848 0.5 0.635956 0.377155
350 1 0.604596 0.49456 0.5 0.165654 -0.0264759
351 1 0.158144 0.161399 0.5 0.47437 0.725092
352 1 0.849316 0.869074 0.5 -0.496132 0.363819
353 1 0.127192 0.706881 0.5 -0.214537 -0.130776
354 1 0.0299514 0.94239 0.5 -0.826452 -0.204859
355 1 0.705863 0.358165 0.5 -0.70096 -0.302135
356 1 0.863258 0.125931 0.5 0.511203 -0.10507
357 1 0.763924 0.384625 0.5 0.466704 0.322109
358 1 0.738426 0.628227 0.5 -0.0459473 0.506326
359 1 0.007552 0.883413 0.5 0.294779 -0.357651
360 1 0.342702 0.902831 0.5 0.172209 0.324646
361 1 0.344542 0.86767 0.5 0.109618 -0.408928
362 1 0.336907 0.160235 0.5 -0.667312 -0.0485867
363 1 0.238279 0.203868 0.5 -0.128717 -0.15561
364 1 0.0747652 0.0510369 0.5 0.335178 -0.372136
365 1 0.112883 0.263676 0.5 0.351284 -0.308839
366 1 0.73621 0.348638 0.5 -0.568967 -0.638232
367 1 0.141145 0.511407 0.5 -0.0343345 -0.163557
368 1 0.283169 0.689018 0.5 -0.0573755 -0.835727
369 1 0.601834 0.355266 0.5 0.0506007 -0.886115
370 1 0.754444 0.0248172 0.5 -0.697736 0.394569
371 1 0.687809 0.836061 0.5 -0.240808 0.565114
372 1 0.553562 0.559396 0.5 -0.198237 -0.220514
373 1 0.0245722 0.978992 0.5 0.192397 -0.27068
374 1 0.0171873 0.425168 0.5 0.54961 -0.256164
375 1 0.426895 0.243602 0.5 0.0063183 -0.661886
376 1 0.310528 0.467919 0.5 0.21304 -0.252851
377 1 0.305466 0.653838 0.5 0.270841 0.114417
378 1 0.251373 0.648337 0.5 0.0510174 -0.0969526
379 1 0.263908 0.926182 0.5 -0.271436 0.898573
380 1 0.659748 0.573235 0.5 -0.227557 0.312385
381 1 0.288561 0.176394 0.5 0.739535 -0.331553
382 1 0.488804 0.900441 0.5 0.229156 -0.122181
383 1 0.000484807 0.194341 0.5 0 0
384 1 0.409499 0.79113 0.5 -0.371807 -0.47701
385 1 0.0294569 0.352955 0.5 0.070893 -0.48405
386 1 0.335542 0.949839 0.5 0.437469 0.03726
387 1 0.941676 0.786481 0.5 0.267231 0.673862
388 1 0.456184 0.0369089 0.5 -0.575828 0.226391
389 1 0.184895 0.0202395 0.5 -0.221599 0.80864
390 1 0.401155 0.365758 0.5 -0.61355 0.0476057
391 1 0.940588 0.03639 0.5 -0.176825 0.0471878
392 1 0.437646 0.225402 0.5 -0.102335 0.30049
393 1 0.245286 0.47394 0.5 0.880592 0.259126
394 1 0.995856 0.184187 0.5 0.559203 0.0241768
395 1 0.0149944 0.444285 0.5 0.505808 -0.12302
396 1 0.180693 0.205568 0.5 0.409791 -0.565536
397 1 0.505498 0.730504 0.5 -0.142422 0.0487778
398 1 0.0765527 0.914953 0.5 0.578181 -0.521437
399 1 0.391397 0.0875384 0.5 -0.564221 -0.137697
400 1 0.529876 0.078281 0.5 -0.35122 -0.264624
401 1 0.861404 0.425104 0.5 0.620256 0.0679461
402 1 0.997167 0.386039 0.5 0.639338 -0.609265
403 1 0.450583 0.929471 0.5 0.175753 0.136136
404 1 0.500023 0.49535 0.5 -0.437902 -0.749969
405 1 0.0321811 0.401308 0.5 -0.272837 -0.0116948
406 1 0.951098 0.168341 0.5 0.0572416 -0.485346
407 1 0.895259 0.213305 0.5 0.368753 0.295943
408 1 0.379361 0.265656 0.5 -0.654014 -0.274815
409 1 0.335604 0.324369 0.5 0.22094 -0.158023
410 1 0.942725 0.346138 0.5 -0.499343 0.0700044
411 1 0.716158 0.369562 0.5 0.0976159 0.00355904
412 1 0.0293668 0.251013 0.5 -0.975875 0.0391475
413 1 0.0157316 0.152531 0.5 -0.328354 -0.0572787
414 1 0.39313 0.68135 0.5 0.818503 0.235406
415 1 0.000452006 0.738639 0.5 0.148375 0.734542
416 1 0.0651268 0.74169 0.5 -0.403985 0.772469
417 1 0.0914635 0.780981 0.5 -0.0667058 -0.574628
418 1 0.0710123 0.699552 0.5 0.0797528 0.71278
419 1 0.396182 0.501887 0.5 0.329181 -0.126976
420 1 0.677275 0.99477 0.5 0.541289 -0.548895
421 1 0.164502 0.54824 0.5 0.0324576 0.507525
422 1 0.283129 0.0976922 0.5 -0.291416 -0.0269912
423 1 0.0466939 0.754378 0.5 -0.369066 0.434836
424 1 0.629824 0.983875 0.5 -0.186094 -0.0603576
425 1 0.377027 0.493735 0.5 -0.902399 -0.270345
426 1 0.897291 0.404911 0.5 0.333462 -0.211957
427 1 0.146363 0.457765 0.5 0.159199 -0.616748
428 1 0.0523717 0.156529 0.5 0.530016 -0.226524
429 1 0.708736 0.0567722 0.5 0.0563366 -0.183291
430 1 0.763469 0.78101 0.5 0.303581 0.434406
431 1 0.797008 0.332448 0.5 -0.205778 -0.139065
432 1 0.147005 0.613222 0.5 0.550051 -0.0969259
433 1 0.700493 0.447808 0.5 0.814078 0.143874
434 1 0.432144 0.572371 0.5 -0.156966 0.641001
435 1 0.898957 0.568645 0.5 0.10246 0.77241
436 1 0.0209812 0.268187 0.5 -0.791473 -0.516446
437 1 0.308819 0.8622 0.5 0.401404 0.41304
438 1 0.0880851 0.505177 0.5 0.00308365 0.344198
439 1 0.103302 0.593923 0.5 -0.634286 0.588249
440 1 0.941318 0.513969 0.5 -0.618424 -0.450202
441 1 0.746429 0.437337 0.5 -0.413891 -0.588791
442 1 0.367893 0.919216 0.5 0.693943 0.418626
443 1 0.0683616 0.0233011 0.5 0.898632 0.0819828
444 1 0.772988 0.0359735 0.5 -0.670872 0.0817648
445 1 0.109181 0.170815 0.5 0.699433 -0.529515
446 1 0.984496 0.168907 0.5 0.157208 -0.0241851
447 1 0.761465 0.364913 0.5 -0.279991 0.335787
448 1 0.29818 0.9903 0.5 0.49493 -0.16657
449 1 0.853254 0.634205 0.5 -0.409505 0.108743
450 1 0.105483 0.564524 0.5 -0.713095 0.492833
451 1 0.546013 0.84427 0.5 -0.790785 0.481762
452 1 0.564475 0.978124 0.5 0.850237 0.0968727
453 1 0.790931 0.99792 0.5 0.16777 0.258975
454 1 0.421269 0.377529 0.5 -0.475389 0.327062
455 1 0.375242 0.0766924 0.5 0.206622 -0.627719
456 1 0.856541 0.273105 0.5 0.770538 0.401425
457 1 0.48549 0.46552 0.5 -0.176934 0.572919
458 1 0.159373 0.440794 0.5 -0.442618 0.452736
459 1 0.039487 0.939557 0.5 -0.671536 -0.401228
460 1 0.154574 0.464433 0.5 0.422728 -0.234944
461 1 0.434112 0.408266 0.5 0.503563 -0.477441
462 1 0.914397 0.531289 0.5 -0.766578 -0.203475
463 1 0.0524256 0.584206 0.5 -0.640502 -0.136893
464 1 0.369234 0.0154789 0.5 0.648182 0.441281
465 1 0.376135 0.330998 0.5 0.853684 0.155306
466 1 0.173905 0.195 0.5 -0.235915 -0.0568663
467 1 0.596079 0.478399 0.5 -0.805183 0.100339
468 1 0.070682 0.200132 0.5 -0.522353 0.564008
469 1 0.261002 0.801064 0.5 -0.735805 0.339918
470 1 0.276118 0.44728 0.5 0.758058 -0.117823
471 1 0.519169 0.0270686 0.5 0.390747 0.295813
472 1 0.120113 0.24585 0.5 0.515848 -0.447784
473 1 0.993937 0.12486 0.5 -0.428762 0.221736
474 1 0.962549 0.466129 0.5 -0.40232 0.791301
475 1 0.939313 0.722396 0.5 -0.279622 0.660676
476 1 0.739816 0.205348 0.5 0.392234 -0.433124
477 1 0.541394 0.0499372 0.5 0.618789 -0.261983
478 1 0.880285 0.660118 0.5 -0.326209 0.529594
479 1 0.169679 0.729758 0.5 0.459984 0.0162625
480 1 0.251396 0.825603 0.5 0.200136 -0.606466
481 1 0.0465937 0.544399 0.5 -0.304801 0.822877
482 1 0.168973 0.711271 0.5 -0.0558259 -0.327861
483 1 0.415114 0.80783 0.5 -0.336112 -0.687666
484 1 0.866081 0.519599 0.5 0.090143 0.129426
485 1 0.181064 0.8971 0.5 -0.0977385 0.121169
486 1 0.12604 0.893448 0.5 0.137582 -0.724966
487 1 0.87321 0.109673 0.5 0.198767 0.505268
488 1 0.955726 0.444779 0.5 0.0101959 -0.145268
489 1 0.119129 0.457171 0.5 -0.538409 -0.0114117
490 1 0.120641 0.442917 0.5 0.269078 0.156001
491 1 0.542545 0.328869 0.5 0.252888 -0.611773
492 1 0.458985 0.734255 0.5 -0.0986631 0.0610327
493 1 0.271389 0.718156 0.5 0 0
494 1 0.621266 0.611399 0.5 -0.25932 0.586494
495 1 0.886324 0.826207 0.5 -0.481855 -0.603221
496 1 0.0475902 0.461769 0.5 0.363582 0.0505892
497 1 0.86824 0.811829 0.5 -0.675439 -0.0298325
498 1 0.673379 0.665806 0.5 0.669369 -0.493928
499 1 0.552105 0.569782 0.5 0.450743 -0.48395
500 1 0.413229 0.526361 0.5 0.78264 0.27791
501 1 0.123879 0.302828 0.5 -0.113621 -0.188689
502 1 0.304653 0.137013 0.5 0.324624 0.140562
503 1 0.578238 0.638839 0.5 0 0
504 1 0.709119 0.225976 0.5 0.124207 -0.405358
505 1 0.387977 0.423981 0.5 0.278755 -0.532725
506 1 0.540414 0.586519 0.5 0.441913 -0.367179
507 1 0.684875 0.113048 0.5 -0.249287 0.449549
508 1 0.853538 0.0646488 0.5 0.128037 -0.708025
509 1 0.986533 0.539606 0.5 0.279976 -0.180826
510 1 0.0500262 0.442204 0.5 0.624866 0.135977
511 1 0.029302 0.185299 0.5 0.403486 0.718748
512 1 0.799739 0.465037 0.5 0.723021 0.000940708
513 1 0.407228 0.308798 0.5 0.405282 -0.449069
514 1 0.319542 0.39694 0.5 -0.438957 0.0893483
515 1 0.917449 0.225172 0.5 0.0964194 -0.483697
516 1 0.832969 0.592129 0.5 0.168359 -0.213584
517 1 0.845859 0.0212445 0.5 0.154475 -0.408617
518 1 0.931152 0.667016 0.5 0.467111 0.348625
519 1 0.485995 0.834396 0.5 0.765334 0.584752
520 1 0.41676 0.461407 0.5 0.189923 -0.0781684
521 1 0.165878 0.491224 0.5 0.0095009 -0.548202
522 1 0.390112 0.0496936 0.5 0.318099 -0.726237
523 1 0.578701 0.230915 0.5 0.433692 -0.391987
524 1 0.298837 0.799422 0.5 -0.268251 0.551731
525 1 0.19231 0.427293 0.5 -0.03682 -0.343239
526 1 0.990793 0.252871 0.5 0.100292 -0.142965
527 1 0.75301 0.0460102 0.5 -0.264721 -0.189444
528 1 0.677004 0.295518 0.5 -0.81948 0.0134597
529 1 0.35715 0.491079 0.5 -0.148503 -0.33037
530 1 0.869126 0.285494 0.5 0.0571806 0.901986
531 1 0.160399 0.33939 0.5 0.309467 -0.433584
532 1 0.289622 0.54598 0.5 0.0461221 -0.379813
533 1 0.891281 0.0815441 0.5 0.392648 -0.673455
534 1 0.739651 0.103157 0.5 0.121481 -0.195464
535 1 0.0356697 0.146702 0.5 0.0993079 0.35006
536 1 0.451246 0.742529 0.5 0.339914 0.561207
537 1 0.710499 0.617558 0.5 -0.0040219 0.248438
538 1 0.464171 0.713519 0.5 -0.000961857 -0.143508
539 1 0.303616 0.538023 0.5 0.338271 -0.310157
540 1 0.280337 0.163494 0.5 -0.293235 0.589487
541 1 0.293602 0.578776 0.5 0.262174 -0.653298
542 1 0.39864 0.552672 0.5 -0.0979663 0.308713
543 1 0.0619345 0.815453 0.5 -0.446532 0.10597
544 1 0.120428 0.551237 0.5 -0.348508 0.353003
545 1 0.301327 0.61265 0.5 0.546808 0.133658
546 1 0.943398 0.262328 0.5 -0.0209296 -0.050448
547 1 0.0230115 0.405981 0.5 0.0817433 -0.601659
548 1 0.26 0.641086 0.5 -0.0899453 0.0356643
549 1 0.710019 0.328802 0.5 -0.203203 0.0212834
550 1 0.0139868 0.749916 0.5 0.1932 0.475247
551 1 0.0692747 0.25078 0.5 0.393233 0.603835
552 1 0.128841 0.512324 0.5 0.0616763 0.508819
553 1 0.291452 0.954184 0.5 0.708385 -0.617306
554 1 0.251848 0.379879 0.5 0.857447 0.463558
555 1 0.148891 0.299516 0.5 0.150379 0.387739
556 1 0.0373586 0.255941 0.5 -0.390537 -0.257276
557 1 0.743362 0.290815 0.5 0.182545 -0.321287
558 1 0.846585 0.455627 0.5 0.507413 -0.660046
559 1 0.195499 0.699697 0.5 -0.60536 -0.0784369
560 1 0.487906 0.362393 0.5 -0.456388 0.260781
561 1 0.775376 0.346873 0.5 -0.253454 -0.291703
562 1 0.658664 0.415596 0.5 -0.702371 -0.024258
563 1 0.864121 0.445877 0.5 -0.465956 0.245618
564 1 0.977181 0.541412 0.5 0.235447 -0.729975
565 1 0.748408 0.177665 0.5 -0.519336 0.608675
566 1 0.400972 0.346398 0.5 -0.193571 0.587204
567 1 0.91983 0.0380349 0.5 -0.947214 0.206709
568 1 0.346877 0.498935 0.5 -0.0284611 0.672258
569 1 0.0288891 0.768076 0.5 -0.523641 0.741719
570 1 0.931607 0.955798 0.5 0.742298 0.240353
571 1 0.216642 0.667164 0.5 0.316922 -0.914836
572 1 0.851645 0.194557 0.5 -0.0202482 -0.151963
573 1 0.073152 0.658182 0.5 0.763264 0.503443
574 1 0.227397 0.00742744 0.5 0.242742 0.0348403
575 1 0.255731 0.427097 0.5 -0.129451 0.415406
576 1 0.880476 0.994505 0.5 -0.266826 0.506731
577 1 0.510053 0.77314 0.5 0.332587 0.6409
578 1 0.867337 0.683692 0.5 0.0304454 -0.146174
579 1 0.116537 0.974943 0.5 -0.355712 -0.464966
580 1 0.150965 0.513909 0.5 -0.111394 0.397578
581 1 0.233965 0.736289 0.5 -0.418936 0.160159
582 1 0.813648 0.664205 0.5 -0.0472053 -0.430469
583 1 0.358972 0.409833 0.5 -0.258135 -0.439991
584 1 0.000491797 0.522615 0.5 -0.170802 0.599532
585 1 0.543495 0.186612 0.5 0.311842 -0.153797
586 1 0.0382456 0.245575 0.5 -0.425409 -0.619
587 1 0.520009 0.32842 0.5 -0.0776195 0.113289
588 1 0.618834 0.406921 0.5 -0.528702 0.102773
589 1 0.915633 0.542002 0.5 -0.748241 0.191926
590 1 0.655256 0.54295 0.5 -0.193513 -0.295596
591 1 0.582287 0.789119 0.5 -0.140414 -0.447247
592 1 0.470695 0.490624 0.5 -0.527485 -0.557558
593 1 0.962382 0.238835 0.5 -0.319753 -0.381396
594 1 0.0857826 0.18475 0.5 -0.336609 0.370225
595 1 0.828351 0.274316 0.5 0.17935 0.177912
596 1 0.909303 0.494574 0.5 0.315058 -0.501181
597 1 0.73292 0.977342 0.5 0.66386 -0.555065
598 1 0.744105 0.165337 0.5 0.0143462 0.446957
599 1 0.854637 0.46403 0.5 0.216099 0.0291976
600 1 0.761691 0.818488 0.5 -0.733092 -0.177953
601 1 0.19568 0.184092 0.5 -0.477983 -0.09551
602 1 0.386818 0.719023 0.5 -0.312506 0.444636
603 1 0.330194 0.70324 0.5 -0.371738 -0.355682
604 1 0.822328 0.0376231 0.5 0.570067 -0.32749
605 1 0.259088 0.765247 0.5 0.731294 0.403681
606 1 0.00626516 0.469802 0.5 0.171084 -0.420728
607 1 0.898235 0.711247 0.5 0.157489 -0.0615611
608 1 0.815327 0.980426 0.5 -0.0230151 0.183397
609 1 0.136033 0.654786 0.5 -0.594441 0.613237
610 1 0.311687 0.992887 0.5 -0.364699 0.246833
611 1 0.181052 0.729418 0.5 0.36347 0.4678
612 1 0.889623 0.194758 0.5 0.179843 0.233929
613 1 0.228926 0.39735 0.5 0.649086 0.250068
614 1 0.341201 0.926491 0.5 0.14583 -0.108036
615 1 0.725165 0.121402 0.5 -0.192352 0.901029
616 1 0.474923 0.15593 0.5 0.258233 0.486115
617 1 0.20409 0.0154962 0.5 0.184908 0.29204
618 1 0.20283 0.00512741 0.5 0.0316961 0.647088
619 1 0.0702964 0.904953 0.5 0.739388 -0.301004
620 1 0.0165973 0.568271 0.5 0.654526 0.460382
621 1 0.257239 0.518127 0.5 -0.340559 0.315187
622 1 0.94827 0.65437 0.5 0.520886 -0.202634
623 1 0.828637 0.583573 0.5 0.0442803 -0.150257
624 1 0.518366 0.853345 0.5 -0.0552112 0.414494
625 1 0.908183 0.189726 0.5 0.096749 0.112109
626 1 0.65772 0.927937 0.5 -0.356052 0.013442
627 1 0.950399 0.577022 0.5 0.804736 -0.0116479
628 1 0.899649 0.850946 0.5 -0.0833396 -0.322181
629 1 0.0951749 0.470331 0.5 -0.136604 -0.0117215
630 1 0.210848 0.90967 0.5 0.803294 0.450171
631 1 0.357514 0.631113 0.5 0.0444487 0.528846
632 1 0.902447 0.827417 0.5 -0.447061 -0.117579
633 1 0.0813007 0.325338 0.5 0.628327 -0.150799
634 1 0.287683 0.476401 0.5 -0.127554 -0.0594422
635 1 0.375597 0.191298 0.5 -0.103907 -0.47455
636 1 0.523298 0.654535 0.5 0.498128 0.108499