LAMMPS (11 Aug 2017)
Created orthogonal box = (-58.36 -58.36 -0.5) to (58.36 58.36 0.5)
  8 by 4 by 1 MPI processor grid
Created 9359 atoms
WARNING: Using 'neigh_modify every 1 delay 0 check yes' setting during minimization (../min.cpp:168)
Neighbor list info ...
  update every 1 steps, delay 0 steps, check yes
  max neighbors/atom: 2000, page size: 100000
  master list distance cutoff = 1.42246
  ghost atom cutoff = 1.42246
  binsize = 0.711231, bins = 165 165 2
  1 neighbor lists, perpetual/occasional/extra = 1 0 0
  (1) pair lj/cut, perpetual
      attributes: half, newton on
      pair build: half/bin/atomonly/newton
      stencil: half/bin/2d/newton
      bin: standard
Setting up cg style minimization ...
  Unit style    : lj
  Current step  : 0
Per MPI rank memory allocation (min/avg/max) = 4.178 | 4.178 | 4.178 Mbytes
Step Temp E_pair E_mol TotEng Press 
       0            0 5.8497818e+23            0 5.8497818e+23 2.411181e+24 
     180            0 4.5505464e-09            0 4.5505464e-09 1.3894157e-05 
Loop time of 0.0282124 on 32 procs for 180 steps with 9359 atoms

98.3% CPU use with 32 MPI tasks x no OpenMP threads

Minimization stats:
  Stopping criterion = linesearch alpha is zero
  Energy initial, next-to-last, final = 
     5.84978178581e+23  4.55054636963e-09  4.55054636963e-09
  Force two-norm initial, final = 1.68508e+31 0.0880401
  Force max component initial, final = 1.19152e+31 0.0419638
  Final line search alpha, max atom move = 0.125 0.00524548
  Iterations, force evaluations = 180 497

MPI task timing breakdown:
Section |  min time  |  avg time  |  max time  |%varavg| %total
---------------------------------------------------------------
Pair    | 0.0043604  | 0.0054709  | 0.0075245  |   1.1 | 19.39
Neigh   | 0.0015893  | 0.0018335  | 0.0021446  |   0.3 |  6.50
Comm    | 0.0047843  | 0.0066487  | 0.0085735  |   1.3 | 23.57
Output  | 0          | 0          | 0          |   0.0 |  0.00
Modify  | 0.00038648 | 0.00042102 | 0.00047255 |   0.0 |  1.49
Other   |            | 0.01384    |            |       | 49.05

Nlocal:    292.469 ave 324 max 273 min
Histogram: 4 3 7 5 3 5 2 1 0 2
Nghost:    93.4375 ave 105 max 83 min
Histogram: 1 2 4 6 2 9 4 0 3 1
Neighs:    636.688 ave 778 max 545 min
Histogram: 2 6 5 5 5 3 3 1 0 2

Total # of neighbors = 20374
Ave neighs/atom = 2.17694
Neighbor list builds = 32
Dangerous builds = 0
Setting up Verlet run ...
  Unit style    : lj
  Current step  : 0
  Time step     : 0.005
Per MPI rank memory allocation (min/avg/max) = 4.097 | 4.098 | 4.1 Mbytes
Step Temp E_pair E_mol TotEng Press 
       0            1 4.5505464e-09            0   0.99989316   0.68691226 
  100000  0.024752788 0.0037886041            0  0.028538747   0.14441858 
  200000  0.024901847 0.0039412169            0  0.028840403   0.14917193 
  300000  0.024641574 0.0036857233            0  0.028324664   0.14334136 
  400000  0.024748137 0.0036774232            0  0.028422916   0.14107909 
  500000  0.025064693 0.0036480614            0  0.028710076   0.14316064 
  600000  0.024825236 0.0039386082            0  0.028761192    0.1483139 
  700000  0.024869262 0.0035802243            0  0.028446829   0.14064917 
  800000  0.025156907 0.0035845994            0  0.028738819   0.13963801 
  900000  0.024874654 0.0038835171            0  0.028755513   0.14594178 
 1000000  0.024432713 0.0037060324            0  0.028136134   0.14404049 
 1100000  0.024958271 0.0038572452            0   0.02881285   0.14562909 
 1200000  0.025052003 0.0036478442            0   0.02869717   0.14259798 
 1300000  0.024998822 0.0037262639            0  0.028722415   0.14280247 
 1400000  0.025008683  0.003695288            0  0.028701299   0.14212027 
 1500000  0.024685009  0.003864569            0  0.028546941   0.14456793 
 1600000  0.024591679  0.003803092            0  0.028392143   0.14568806 
 1700000  0.024853513 0.0035472262            0  0.028398084   0.14070303 
 1800000   0.02473612 0.0038975245            0  0.028631002    0.1474286 
 1900000  0.024766928 0.0036419441            0  0.028406226   0.14257128 
 2000000    0.0251584 0.0036870135            0  0.028842726   0.14084793 
 2100000   0.02465038 0.0038825199            0  0.028530266   0.14675398 
 2200000  0.024779834 0.0038211559            0  0.028598342   0.14390084 
 2300000  0.024932571 0.0038666039            0  0.028796511   0.14815205 
 2400000  0.025039952 0.0037883417            0  0.028825618   0.14475558 
 2500000  0.025222644 0.0038420883            0  0.029062038   0.14471376 
 2600000  0.024898086 0.0035541144            0   0.02844954   0.14046843 
 2700000  0.025103647 0.0038148328            0  0.028915797   0.14454763 
 2800000  0.024766294 0.0038681711            0  0.028631819   0.14673201 
 2900000   0.02494824 0.0039412839            0  0.028886858   0.14881847 
 3000000  0.024966693 0.0037472287            0  0.028711254   0.14241008 
 3100000  0.025790868 0.0037181624            0  0.029506274   0.14365725 
 3200000  0.025330777 0.0039329777            0  0.029261048   0.14772792 
 3300000  0.024652932 0.0038433481            0  0.028493646   0.14545202 
 3400000  0.025439808 0.0037997497            0   0.02923684   0.14499977 
 3500000  0.024921508 0.0038925328            0  0.028811378   0.14760567 
 3600000  0.025114993 0.0037317745            0  0.028844084   0.14395341 
 3700000  0.024951333 0.0037854154            0  0.028734082    0.1434534 
 3800000  0.024936506 0.0037725469            0  0.028706388   0.14340775 
 3900000  0.024821478  0.003928701            0  0.028747527   0.14701047 
 4000000  0.024756206 0.0036699702            0  0.028423531   0.14199452 
 4100000  0.025510204 0.0037767982            0  0.029284276   0.14434233 
 4200000   0.02498238 0.0037814616            0  0.028761172   0.14389266 
 4300000  0.024991241 0.0037659294            0  0.028754501    0.1443277 
 4400000  0.025094591 0.0037881994            0  0.028880109   0.14478314 
 4500000  0.024788411 0.0037252212            0  0.028510984   0.14187115 
 4600000  0.025287971 0.0038299858            0  0.029115255   0.14463783 
 4700000   0.02489383 0.0037773963            0  0.028668567   0.14364848 
 4800000  0.025205743 0.0037958891            0  0.028998939   0.14455939 
 4900000  0.025043353  0.003925882            0  0.028966559   0.14640357 
 5000000  0.025028816  0.003643024            0  0.028669166   0.13964681 
 5100000  0.025176357  0.003557517            0  0.028731184   0.14150343 
 5200000  0.025079884 0.0038653592            0  0.028942564   0.14725848 
 5300000  0.024689329 0.0035761443            0  0.028262835    0.1387998 
 5400000  0.025052498 0.0036889563            0  0.028738777    0.1438754 
 5500000  0.024788427 0.0038353993            0  0.028621178   0.14595851 
 5600000  0.025132513 0.0036341886            0  0.028764016   0.13972201 
 5700000  0.024858944 0.0039804807            0  0.028836769   0.14798564 
 5800000  0.025094897  0.003644851            0  0.028737067   0.14220377 
 5900000  0.025093763 0.0038707922            0  0.028961874   0.14678156 
 6000000  0.025103456 0.0037454521            0  0.028846226   0.14339844 
 6100000  0.024632241 0.0036319092            0  0.028261518   0.14163993 
 6200000  0.024950443 0.0037880635            0   0.02873584   0.14525797 
 6300000  0.024943609 0.0037895059            0   0.02873045   0.14550944 
 6400000  0.025214563 0.0036880381            0  0.028899907   0.14251909 
 6500000  0.024663421 0.0038042986            0  0.028465085   0.14621071 
 6600000  0.024791072 0.0039325624            0  0.028720985   0.14591679 
 6700000  0.024781117 0.0039605645            0  0.028739033   0.14884339 
 6800000  0.025218618 0.0038649695            0  0.029080893    0.1470256 
 6900000  0.024680743 0.0038550247            0  0.028533131   0.14562973 
 7000000  0.024976794 0.0036819671            0  0.028656092   0.14185039 
 7100000  0.024970193 0.0035098186            0  0.028477343   0.13743332 
 7200000  0.024742858 0.0037134619            0  0.028453676   0.14237635 
 7300000  0.025312686 0.0037264119            0  0.029036393    0.1434086 
 7400000  0.025384578 0.0039803604            0  0.029362226   0.14788846 
 7500000  0.025526337 0.0036722486            0  0.029195858   0.14173524 
 7600000  0.025322971 0.0038846183            0  0.029204883   0.14706472 
 7700000  0.024882886 0.0037820335            0  0.028662261   0.14384401 
 7800000  0.025002788 0.0036237974            0  0.028623914   0.14119369 
 7900000  0.024797354 0.0038568634            0  0.028651568   0.14555973 
 8000000   0.02497831 0.0036354488            0   0.02861109   0.14093142 
 8100000  0.024598629 0.0037154667            0  0.028311467   0.14345693 
 8200000  0.025094073 0.0036705268            0  0.028761919   0.14283147 
 8300000  0.025264579 0.0037868122            0  0.029048692   0.14502702 
 8400000  0.024965604 0.0037343213            0  0.028697258   0.14319257 
 8500000  0.024843423  0.003715885            0  0.028556654   0.14386755 
 8600000  0.024610886 0.0037758524            0  0.028384108   0.14493223 
 8700000  0.024899162 0.0038713949            0  0.028767896   0.14631749 
 8800000  0.025161384 0.0037008085            0  0.028859504   0.14116498 
 8900000  0.025090255 0.0036824274            0  0.028770002   0.14435136 
 9000000   0.02525309  0.003648764            0  0.028899156   0.14293304 
 9100000   0.02458276 0.0038320891            0  0.028412223   0.14761198 
 9200000  0.024732503 0.0037890812            0  0.028518942   0.14337083 
 9300000  0.024919336 0.0038238314            0  0.028740504   0.14515814 
 9400000  0.024752357 0.0037577926            0  0.028507505   0.14547582 
 9500000  0.025416915 0.0038174522            0  0.029231652     0.145547 
 9600000   0.02480664 0.0037787009            0  0.028582691   0.14447365 
 9700000  0.024623428  0.003808436            0  0.028429233   0.14514291 
 9800000  0.025338053 0.0037473156            0  0.029082661   0.14432282 
 9900000  0.024845336 0.0036685092            0  0.028511191   0.14152284 
10000000  0.025103506 0.0037778816            0  0.028878705   0.14499238 
Loop time of 336.172 on 32 procs for 10000000 steps with 9359 atoms

Performance: 12850546.372 tau/day, 29746.635 timesteps/s
99.4% CPU use with 32 MPI tasks x no OpenMP threads

MPI task timing breakdown:
Section |  min time  |  avg time  |  max time  |%varavg| %total
---------------------------------------------------------------
Pair    | 61.556     | 61.921     | 63.021     |   4.3 | 18.42
Neigh   | 12.154     | 12.204     | 12.431     |   1.4 |  3.63
Comm    | 75.775     | 92.292     | 110.23     |  90.2 | 27.45
Output  | 0.14464    | 0.14476    | 0.14547    |   0.0 |  0.04
Modify  | 101.69     | 123        | 142.48     |  90.3 | 36.59
Other   |            | 46.61      |            |       | 13.87

Nlocal:    292.469 ave 299 max 282 min
Histogram: 1 0 1 2 5 6 2 10 2 3
Nghost:    91.4375 ave 100 max 81 min
Histogram: 2 0 1 3 8 4 6 4 3 1
Neighs:    646.75 ave 690 max 598 min
Histogram: 1 0 3 3 8 4 8 2 2 1

Total # of neighbors = 20696
Ave neighs/atom = 2.21135
Neighbor list builds = 222001
Dangerous builds = 0
Total wall time: 0:05:36
