ITEM: TIMESTEP
0
ITEM: NUMBER OF ATOMS
9891
ITEM: BOX BOUNDS pp pp pp
-5.8359999999999999e+01 5.8359999999999999e+01
-5.8359999999999999e+01 5.8359999999999999e+01
-5.0000000000000000e-01 5.0000000000000000e-01
ITEM: ATOMS id type xs ys zs c_002[1] c_002[2]
1 1 0.101068 0.176116 0.5 -0.278134 -0.919412
2 1 0.0732376 0.122318 0.5 -0.159064 -0.783915
3 1 0.0398557 0.894016 0.5 0.878225 -0.377736
4 1 0.972205 0.0748874 0.5 -0.0858152 0.686418
5 1 0.137717 0.12175 0.5 -0.692638 -0.306077
6 1 0.0872732 0.340909 0.5 0.137998 0.700679
7 1 0.114525 0.405023 0.5 -0.564797 0.54888
8 1 0.0793849 0.140635 0.5 0.0300174 -0.897463
9 1 0.175528 0.0792756 0.5 0.208116 -0.0801385
10 1 0.96281 0.982243 0.5 -0.246646 0.599735
11 1 0.0857873 0.00838729 0.5 0.49155 -0.213458
12 1 0.0394375 0.280614 0.5 -0.657377 -0.193451
13 1 0.0744989 0.0309282 0.5 -0.587066 0.00574825
14 1 0.013843 0.116301 0.5 0.0579151 -0.722989
15 1 0.995344 0.0278993 0.5 -0.398078 0.0475139
16 1 0.985061 0.172082 0.5 0.564984 -0.201608
17 1 0.105227 0.104877 0.5 -0.00256234 -0.953428
18 1 0.0287671 0.951443 0.5 0.395008 -0.689191
19 1 0.00639652 0.0966262 0.5 -0.411756 -0.0468489
20 1 0.996144 0.911251 0.5 0.245964 -0.491289
21 1 0.117973 0.230542 0.5 0.661978 -0.151631
22 1 0.0824828 0.250603 0.5 0.0541404 -0.0332211
23 1 0.0520356 0.965989 0.5 0.512646 -0.650377
24 1 0.201992 0.11633 0.5 0.265497 0.469122
25 1 0.0653373 0.0274741 0.5 0.443047 -0.125493
26 1 0.0587673 0.26724 0.5 -0.756392 -0.300459
27 1 0.00501298 0.995573 0.5 -0.149811 -0.563906
28 1 0.127828 0.23057 0.5 0.0904276 -0.61646
29 1 0.0698937 0.292165 0.5 -0.36439 -0.0315085
30 1 0.126344 0.989915 0.5 0.0708859 -0.836567
31 1 0.0480371 0.176315 0.5 -0.702477 -0.309935
32 1 0.156216 0.173937 0.5 -0.331295 -0.935113
33 1 0.0702875 0.194439 0.5 -0.156018 -0.830239
34 1 0.090199 0.137903 0.5 0.00270922 -0.852265
35 1 0.263134 0.0843841 0.5 0.143645 -0.338697
36 1 0.167067 0.217901 0.5 0.446051 -0.0105481
37 1 0.985231 0.949933 0.5 -0.141591 -0.110858
38 1 0.916919 0.164257 0.5 -0.805351 0.161385
39 1 0.957598 0.162052 0.5 -0.643717 -0.432965
40 1 0.149718 0.0965755 0.5 -0.822308 -0.411613
41 1 0.188012 0.0714601 0.5 0.216417 -0.338043
42 1 0.189832 0.142948 0.5 -0.0886253 0.148009
43 1 0.242444 0.154718 0.5 -0.0555622 -0.465024
44 1 0.11262 0.0202385 0.5 -0.255055 -0.420172
45 1 0.0494034 0.240381 0.5 0.0302276 -0.45335
46 1 0.0518755 0.102538 0.5 0.247154 -0.680914
47 1 0.972252 0.986306 0.5 -0.373832 0.543333
48 1 0.251573 0.160672 0.5 0.145909 0.0123896
49 1 0.282296 0.0883261 0.5 0.60645 -0.451594
50 1 0.0456608 0.901899 0.5 0.696374 -0.674528
51 1 0.961559 0.284268 0.5 -0.243025 -0.174153
52 1 0.18515 0.107589 0.5 0.00821143 -0.583075
53 1 0.0406486 0.993469 0.5 0.62348 -0.707402
54 1 0.117462 0.0505113 0.5 -0.213481 -0.448548
55 1 0.119436 0.129833 0.5 -0.474359 -0.621849
56 1 0.0701098 0.253461 0.5 -0.468327 -0.575765
57 1 0.148936 0.107151 0.5 -0.830732 -0.454048
58 1 0.05457 0.982658 0.5 0.652738 -0.690496
59 1 0.9685 0.0930548 0.5 -0.702455 0.510064
60 1 0.0588315 0.170566 0.5 -0.573306 -0.472311
61 1 0.0635013 0.187994 0.5 -0.472309 -0.814509
62 1 0.0790588 0.0914593 0.5 0.121646 0.105621
63 1 0.061702 0.237002 0.5 -0.228929 -0.950698
64 1 0.979717 0.0671003 0.5 -0.700552 0.443481
65 1 0.194154 0.160367 0.5 -0.47542 -0.565107
66 1 0.270041 0.145263 0.5 0.329202 -0.107723
67 1 0.05563 0.954625 0.5 0.504657 -0.749092
68 1 0.0651663 0.216794 0.5 -0.0016239 -0.726753
69 1 0.125462 0.898303 0.5 0.231054 -0.863764
70 1 0.87512 0.25601 0.5 0.0561382 0.416239
71 1 0.0843118 0.171985 0.5 0.12787 -0.897707
72 1 0.952177 0.146657 0.5 -0.732332 -0.214253
73 1 0.0450152 0.0961577 0.5 -0.335639 -0.00376156
74 1 0.0211051 0.125554 0.5 0.0588304 -0.944746
75 1 0.14812 0.117475 0.5 -0.864178 -0.197166
76 1 0.202273 0.175861 0.5 -0.876776 -0.159656
77 1 0.0746509 0.00992368 0.5 0.872461 -0.281526
78 1 0.130488 0.075909 0.5 -0.517537 -0.474026
79 1 0.971079 0.0623935 0.5 -0.12206 0.246952
80 1 0.21744 0.18896 0.5 -0.628571 -0.129001
81 1 0.028804 0.171085 0.5 0.0831182 -0.813287
82 1 0.0193098 0.0592401 0.5 0.731717 -0.356299
83 1 0.139701 0.099833 0.5 -0.662795 0.00492687
84 1 0.127483 0.0860198 0.5 -0.388799 -0.148917
85 1 0.0084805 0.0120084 0.5 0.0464687 -0.827614
86 1 0.0944756 0.989594 0.5 0.406393 0.00400829
87 1 0.18931 0.098632 0.5 0.469651 -0.796161
88 1 0.0410093 0.0105598 0.5 0.150459 -0.18124
89 1 0.986209 0.188968 0.5 0.328817 -0.107505
90 1 0.954785 0.37534 0.5 0.641569 -0.272576
91 1 0.0130876 0.0296367 0.5 0 0
92 1 0.901755 0.328013 0.5 0.359162 -0.263531
93 1 0.18375 0.0343556 0.5 0.0318784 -0.489116
94 1 0.970036 0.157917 0.5 -0.221859 -0.331584
95 1 0.0254566 0.141706 0.5 0.0770688 -0.843477
96 1 0.109719 0.345694 0.5 0.537949 0.582264
97 1 0.0288997 0.0858305 0.5 0.211454 -0.69627
98 1 0.145473 0.0374608 0.5 0.0600347 -0.871389
99 1 0.0195134 0.971798 0.5 0.547563 -0.727523
100 1 0.018835 0.330152 0.5 0.799958 -0.151941
101 1 0.0600323 0.0188665 0.5 0.956939 -0.255623
102 1 0.0405092 0.0201548 0.5 0.153072 -0.19908
103 1 0.0900974 0.0183372 0.5 0.608174 0.107056
104 1 0.994117 0.226502 0.5 -0.270618 -0.676609
105 1 0.0383373 0.130189 0.5 -0.044344 -0.786097
106 1 0.0649083 0.116462 0.5 -0.284933 -0.780724
107 1 0.0399415 0.0399354 0.5 0.396917 -0.555909
108 1 0.116449 0.187825 0.5 -0.286783 -0.551735
109 1 0.0601231 0.945921 0.5 0.115068 -0.765459
110 1 0.915669 0.140657 0.5 -0.0354844 -0.306482
111 1 0.178855 0.0996038 0.5 0.442163 -0.477574
112 1 0.960704 0.13961 0.5 -0.718297 -0.0612824
113 1 0.318956 0.215174 0.5 0.45455 -0.153933
114 1 0.00944353 0.176016 0.5 0.00222382 -0.454883
115 1 0.98005 0.118587 0.5 -0.562185 0.458752
116 1 0.10592 0.194173 0.5 -0.480425 -0.438314
117 1 0.0515214 0.202356 0.5 -0.0982842 -0.825282
118 1 0.0579181 0.856063 0.5 0.916525 -0.237286
119 1 0.152704 0.975174 0.5 0.464183 -0.314905
120 1 0.120402 0.3084 0.5 -0.55686 0.348561
121 1 0.00650299 0.107097 0.5 -0.357894 -0.208406
122 1 0.0993011 0.186309 0.5 -0.234572 -0.885078
123 1 0.0634686 0.126527 0.5 -0.140258 -0.468053
124 1 0.0181489 0.134914 0.5 0.0036886 -0.934592
125 1 0.0467051 0.220917 0.5 -0.254434 -0.721555
126 1 0.00291618 0.9199 0.5 0.353893 -0.469953
127 1 0.0252371 0.906694 0.5 0.446604 -0.674352
128 1 0.0204572 0.0108871 0.5 0.0398969 -0.0630907
129 1 0.177906 0.131437 0.5 0.212779 0.74069
130 1 0.0918627 0.127946 0.5 -0.202704 -0.912867
131 1 0.0553422 0.217528 0.5 -0.02441 -0.627489
132 1 0.187908 0.999359 0.5 -0.45884 0.289746
133 1 0.946957 0.987949 0.5 0.109473 0.537698
134 1 0.111833 0.974929 0.5 -0.450348 -0.457829
135 1 0.12063 0.167448 0.5 -0.58353 -0.583395
136 1 0.080108 0.0477809 0.5 -0.511539 -0.515009
137 1 0.92428 0.970979 0.5 -0.261446 0.215753
138 1 0.0618421 0.297667 0.5 0.21761 0.709841
139 1 0.102701 0.114473 0.5 -0.302637 -0.906718
140 1 0.932534 0.177338 0.5 0.244241 0.353536
141 1 0.0233753 0.264408 0.5 -0.680611 -0.439695
142 1 0.0687172 0.855676 0.5 0.754688 -0.260284
143 1 0.170795 0.277605 0.5 -0.135681 0.14479
144 1 0.0162327 0.98075 0.5 0.383697 -0.877703
145 1 0.0984442 0.0494725 0.5 -0.490606 -0.169865
146 1 0.0486963 0.0648878 0.5 0.386839 -0.860295
147 1 0.128721 0.125389 0.5 -0.78044 -0.290087
148 1 0.977641 0.1635 0.5 0.287103 -0.566586
149 1 0.0273288 0.181552 0.5 0.142064 -0.838758
150 1 0.956315 0.0894941 0.5 -0.726664 0.414571
151 1 0.0985625 0.979647 0.5 0.0163437 -0.354082
152 1 0.105834 0.271394 0.5 -0.554628 0.737029
153 1 0.0509341 0.1557 0.5 0.225717 -0.278298
154 1 0.0541392 0.883775 0.5 0.744202 -0.484592
155 1 0.0930008 0.931071 0.5 0.459736 -0.824826
156 1 0.0213066 0.162808 0.5 -0.0704073 -0.908363
157 1 0.0387971 0.975306 0.5 0.480767 -0.373834
158 1 0.072914 0.223134 0.5 -0.330992 -0.809413
159 1 0.205129 0.0767961 0.5 0.377513 -0.464267
160 1 0.0616793 0.908768 0.5 0.648122 -0.599417
161 1 0.0304221 0.969716 0.5 0.149808 -0.75211
162 1 0.0725702 0.90776 0.5 0.509754 -0.749484
163 1 0.0919567 0.0414797 0.5 -0.643291 -0.302926
164 1 0.104128 0.164696 0.5 -0.0944197 -0.882857
165 1 0.0920195 0.96096 0.5 0.23605 -0.456827
166 1 0.0759926 0.951615 0.5 0.71873 -0.662193
167 1 0.158069 0.164591 0.5 -0.438942 -0.724972
168 1 0.0339704 0.960543 0.5 0.231059 -0.650778
169 1 0.127822 0.0345745 0.5 -0.577536 -0.689015
170 1 0.0900923 0.0543081 0.5 -0.740997 -0.456932
171 1 0.0996224 0.0265002 0.5 -0.449256 -0.00689468
172 1 0.098626 0.0977837 0.5 0.136124 -0.979429
173 1 0.150885 0.158 0.5 -0.49388 -0.570956
174 1 0.10134 0.0882215 0.5 -0.0675178 -0.966684
175 1 0.0396145 0.0819482 0.5 0.224427 -0.0976085
176 1 0.998994 0.216944 0.5 -0.190634 -0.685025
177 1 0.207614 0.139708 0.5 -0.300015 0.84719
178 1 0.862748 0.240647 0.5 0.261447 0.702631
179 1 0.0381265 0.170296 0.5 -0.196563 -0.125555
180 1 0.244191 0.144471 0.5 0.0962737 -0.633095
181 1 0.00866078 0.138504 0.5 0.373945 -0.496269
182 1 0.205921 0.0497209 0.5 0.61809 -0.59062
183 1 0.0293318 0.923811 0.5 0.407702 -0.631608
184 1 0.0224278 0.031733 0.5 0.687811 0.566323
185 1 0.21814 0.130266 0.5 0.413203 -0.341164
186 1 0.873317 0.13992 0.5 0.564654 -0.071574
187 1 0.912645 0.0318999 0.5 -0.744824 0.0733657
188 1 0.127661 0.961058 0.5 0.90049 0.112046
189 1 0.987649 0.112373 0.5 0.075218 0.582954
190 1 0.877037 0.319013 0.5 0.177573 -0.00820602
191 1 0.0284313 0.132478 0.5 -0.0154053 -0.968408
192 1 0.198294 0.13577 0.5 -0.161192 0.749311
193 1 0.874653 0.0308782 0.5 -0.810136 0.0818996
194 1 0.139344 0.110789 0.5 -0.780924 -0.544595
195 1 0.92833 0.196892 0.5 0.0395578 0.515138
196 1 0.0597519 0.288456 0.5 -0.479184 0.674653
197 1 0.0139391 0.146468 0.5 -0.0306511 -0.212094
198 1 0.0562158 0.120151 0.5 -0.339716 -0.354086
199 1 0.826557 0.00177842 0.5 -0.019089 -0.207116
200 1 0.150671 0.0549775 0.5 -0.520204 -0.52082
201 1 0.975411 0.0109582 0.5 -0.56108 0.207354
202 1 0.0886135 0.998632 0.5 0.434379 -0.362882
203 1 0.0304242 0.122896 0.5 0.228564 -0.745792
204 1 0.0955295 0.146047 0.5 -0.0402519 -0.180024
205 1 0.120791 0.178851 0.5 -0.388662 -0.510873
206 1 0.0105152 0.288623 0.5 -0.0815155 -0.200131
207 1 0.926941 0.279262 0.5 0.335326 -0.663468
208 1 0.170259 0.0872139 0.5 -0.00462829 0.0304617
209 1 0.0898113 0.911997 0.5 0.302429 -0.862351
210 1 0.0747437 0.174083 0.5 -0.107232 -0.947499
211 1 0.139061 0.131026 0.5 -0.514162 0.150462
212 1 0.0475912 0.211136 0.5 -0.151038 -0.754943
213 1 0.942756 0.978873 0.5 -0.285017 0.069745
214 1 0.106999 0.153724 0.5 -0.498068 -0.581611
215 1 0.0917125 0.255165 0.5 -0.369937 -0.436846
216 1 0.0658688 0.177591 0.5 -0.309811 -0.859656
217 1 0.92556 0.0887266 0.5 0.380842 0.475856
218 1 0.275927 0.0993634 0.5 0.520304 -0.671326
219 1 0.0705918 0.132892 0.5 -0.114693 -0.791143
220 1 0.997354 0.987596 0.5 -0.24915 -0.63672
221 1 0.0775922 0.162746 0.5 -0.204457 -0.411353
222 1 0.97874 0.240535 0.5 0.020174 -0.326386
223 1 0.0594695 0.0819016 0.5 0.750477 0.109422
224 1 0.0881698 0.273817 0.5 -0.724755 0.563119
225 1 0.131519 0.105065 0.5 -0.456946 0.12441
226 1 0.131058 0.299817 0.5 0.193492 -0.104392
227 1 0.140163 0.021605 0.5 -0.214229 0.0347585
228 1 0.177573 0.0692131 0.5 0.355069 -0.358675
229 1 0.0501915 0.0191848 0.5 0.765864 -0.320439
230 1 0.115909 0.364252 0.5 -0.20746 0.299853
231 1 0.0454673 0.0737942 0.5 0.473394 -0.331826
232 1 0.150631 0.0861906 0.5 -0.475848 -0.309308
233 1 0.833271 0.180711 0.5 0.121588 0.0673224
234 1 0.105724 0.203611 0.5 -0.444828 -0.642321
235 1 0.156824 0.111925 0.5 -0.764496 -0.329869
236 1 0.148794 0.127085 0.5 -0.382602 0.0501438
237 1 0.219522 0.253563 0.5 -0.617899 0.223795
238 1 0.979817 0.128927 0.5 -0.528659 0.232288
239 1 0.12236 0.221878 0.5 0.214834 -0.172388
240 1 0.131271 0.216396 0.5 0.0368403 5.58245e-05
241 1 0.0203348 0.200511 0.5 -0.00171958 -0.528314
242 1 0.0700241 0.0623284 0.5 -0.197106 -0.141176
243 1 0.146846 0.314528 0.5 0.361765 -0.860645
244 1 0.0840561 0.120316 0.5 0.0216497 -0.978348
245 1 0.120895 0.119656 0.5 -0.463372 -0.810211
246 1 0.150307 0.304351 0.5 0.56854 -0.747053
247 1 0.0456957 0.163567 0.5 0.341453 0.312026
248 1 0.0172617 0.182482 0.5 -0.0562261 -0.847684
249 1 0.0190452 0.172611 0.5 -0.0761105 -0.918759
250 1 0.0677997 0.167091 0.5 -0.60645 -0.694612
251 1 0.0858296 0.950731 0.5 0.726745 -0.609281
252 1 0.201724 0.166216 0.5 -0.920271 -0.151153
253 1 0.0694646 0.916889 0.5 0.374554 -0.906518
254 1 0.16074 0.151244 0.5 -0.454876 -0.324599
255 1 0.927649 0.928383 0.5 -0.576628 -0.741858
256 1 0.0809889 0.991402 0.5 0.338142 -0.203474
257 1 0.111304 0.12294 0.5 -0.357401 -0.854865
258 1 0.152824 0.205759 0.5 -0.476009 -0.605288
259 1 0.987548 0.147045 0.5 0.588218 0.0516938
260 1 0.0945464 0.0810227 0.5 -0.224588 -0.802396
261 1 0.0300751 0.994633 0.5 0.33142 -0.880952
262 1 0.815295 0.862879 0.5 -0.0253333 -0.498448
263 1 0.237454 0.134471 0.5 0.255352 -0.599935
264 1 0.0176349 0.924858 0.5 0.408095 -0.762665
265 1 0.080719 0.0579083 0.5 -0.558069 -0.418238
266 1 0.887458 0.146567 0.5 0.803298 -0.060167
267 1 0.894165 0.185573 0.5 0.402513 0.163235
268 1 0.110186 0.132587 0.5 -0.120864 -0.872049
269 1 0.929791 0.2214 0.5 0.611596 -0.0765304
270 1 0.15142 0.146571 0.5 -0.894742 -0.0729896
271 1 0.113015 0.210024 0.5 -0.0813254 -0.661085
272 1 0.0448629 0.146532 0.5 0.0292603 -0.711755
273 1 0.137188 0.0312734 0.5 -0.254535 -0.829905
274 1 0.0645528 0.0903117 0.5 0.559459 -0.177146
275 1 0.0291589 0.106896 0.5 0.226571 0.0877118
276 1 0.953418 0.290229 0.5 -0.707911 0.0792331
277 1 0.960809 0.202502 0.5 0.100311 0.510933
278 1 0.108558 0.182369 0.5 -0.467082 -0.818038
279 1 0.0581064 0.10991 0.5 0.16294 -0.874763
280 1 0.0776285 0.969336 0.5 0.5911 -0.401979
281 1 0.135729 0.237089 0.5 -0.126174 -0.839723
282 1 0.0440835 0.0294392 0.5 0.581757 -0.397881
283 1 0.192199 0.114137 0.5 0.027651 0.410965
284 1 0.120205 0.0676328 0.5 -0.476161 -0.31108
285 1 0.994232 0.881818 0.5 0.306177 -0.658608
286 1 0.143543 0.27756 0.5 -0.899246 0.0547708
287 1 0.0271211 0.0404668 0.5 0.649576 -0.365304
288 1 0.0684614 0.107569 0.5 -0.12039 -0.770843
289 1 0.0922671 0.351333 0.5 0.0890937 0.794115
290 1 0.20677 0.0188251 0.5 -0.574299 -0.612849
291 1 0.973064 0.315146 0.5 0.354194 -0.324949
292 1 0.083012 0.933191 0.5 0.632164 -0.72351
293 1 0.185605 0.0519464 0.5 0.860583 -0.0196016
294 1 0.986471 0.201091 0.5 -0.179178 0.553571
295 1 0.0345973 0.224644 0.5 -0.424677 -0.876297
296 1 0.982616 0.371095 0.5 0.447262 -0.747196
297 1 0.0237597 0.963191 0.5 0.547357 -0.698162
298 1 0.132419 0.154901 0.5 -0.311758 -0.911591
299 1 0.98886 0.0372312 0.5 -0.166576 0.127068
300 1 0.0793065 0.00154089 0.5 0.193775 -0.413727
301 1 0.0333701 0.321707 0.5 0.82762 0.244853
302 1 0.156729 0.0349862 0.5 0.525636 -0.76149
303 1 0.0352378 0.114841 0.5 0.300107 -0.593599
304 1 0.114027 0.0100606 0.5 -0.202188 0.238192
305 1 0.979538 0.208824 0.5 0.262967 0.723153
306 1 0.083103 0.0268714 0.5 -0.554194 0.190292
307 1 0.17329 0.176823 0.5 -0.401069 -0.787215
308 1 0.975019 0.172675 0.5 -0.206137 -0.478992
309 1 0.261955 0.161108 0.5 0.270329 0.234992
310 1 0.0891625 0.100168 0.5 0.0576287 -0.953472
311 1 0.0592338 0.0457205 0.5 0.273931 -0.28857
312 1 0.167728 0.158468 0.5 0.118187 -0.578464
313 1 0.0497974 0.127612 0.5 0.167303 -0.526534
314 1 0.992219 0.00818131 0.5 -0.219382 0.224169
315 1 0.960182 0.328793 0.5 0.0883105 -0.761678
316 1 0.147854 0.453777 0.5 -0.000366105 0.211096
317 1 0.979871 0.57416 0.5 0.117953 -0.706492
318 1 0.99412 0.461701 0.5 0.870503 0.21615
319 1 0.0268204 0.403824 0.5 0.502762 -0.0769797
320 1 0.982584 0.443918 0.5 0.504608 -0.458147
321 1 0.0249822 0.366949 0.5 0.61413 -0.33426
322 1 0.991052 0.389079 0.5 0.37096 0.0511275
323 1 0.941189 0.485919 0.5 0.531769 -0.615237
324 1 0.039377 0.450326 0.5 0.898085 -0.185966
325 1 0.144269 0.462618 0.5 0.239715 -0.862544
326 1 0.0039204 0.461245 0.5 0.860905 -0.282151
327 1 0.0829224 0.396958 0.5 0.162817 0.705393
328 1 0.0522948 0.396561 0.5 0.605242 0.287862
329 1 0.0209135 0.469881 0.5 0.731247 -0.40766
330 1 0.0335372 0.363132 0.5 -0.478544 -0.133027
331 1 0.918854 0.421595 0.5 -0.865732 -0.217853
332 1 0.0622048 0.341897 0.5 0.0351776 0.227072
333 1 0.944885 0.191483 0.5 -0.0701909 0.880064
334 1 0.947993 0.218204 0.5 -0.59754 -0.0699663
335 1 0.116079 0.140217 0.5 -0.242677 -0.74317
336 1 0.925039 0.342688 0.5 0.417316 -0.880978
337 1 0.0927577 0.322387 0.5 0.176595 0.685021
338 1 0.103187 0.298471 0.5 -0.159641 0.0125148
339 1 0.00868243 0.396042 0.5 0.50752 -0.790436
340 1 0.140293 0.405833 0.5 -0.240933 0.834781
341 1 0.0497035 0.249776 0.5 -0.764452 -0.264194
342 1 0.976345 0.363682 0.5 0.535427 -0.724241
343 1 0.0785318 0.336821 0.5 0.000148066 0.829606
344 1 0.952095 0.561643 0.5 -0.596644 -0.0787508
345 1 0.0403514 0.371887 0.5 -0.580879 -0.074814
346 1 0.893567 0.372118 0.5 0.669763 -0.51912
347 1 0.182769 0.224003 0.5 0.665796 -0.314004
348 1 0.986887 0.435437 0.5 0.633286 -0.427633
349 1 0.986112 0.0905288 0.5 0.0346196 0.382021
350 1 0.996281 0.313803 0.5 0.272706 -0.791923
351 1 0.123936 0.408514 0.5 -0.630962 0.352773
352 1 0.92394 0.324317 0.5 0.822122 -0.228209
353 1 0.130165 0.17515 0.5 -0.720309 -0.551277
354 1 0.928624 0.46804 0.5 0.278453 -0.512098
355 1 0.0191457 0.487826 0.5 0.649998 0.269526
356 1 0.960224 0.310096 0.5 0.299001 0.238825
357 1 0.0785509 0.454464 0.5 0.148313 -0.512641
358 1 0.111972 0.29465 0.5 -0.304897 0.0345926
359 1 0.970202 0.384546 0.5 0.440115 -0.840862
360 1 0.171121 0.266952 0.5 -0.389284 -0.143454
361 1 0.0668768 0.307732 0.5 0.47642 0.528572
362 1 0.128092 0.0956355 0.5 -0.607669 0.418041
363 1 0.950889 0.549441 0.5 -0.358089 -0.102782
364 1 0.0319888 0.274489 0.5 -0.317446 -0.606404
365 1 0.922661 0.259023 0.5 0.410974 -0.626802
366 1 0.123262 0.42823 0.5 -0.777067 0.217365
367 1 0.0309248 0.29358 0.5 -0.178521 -0.583685
368 1 0.00150826 0.35047 0.5 0.499963 -0.790322
369 1 0.927138 0.16781 0.5 0.00602286 0.372295
370 1 0.966726 0.364608 0.5 0.681288 -0.509466
371 1 0.980813 0.286509 0.5 -0.65601 -0.0114717
372 1 0.079904 0.102349 0.5 -0.285704 -0.39554
373 1 0.0417893 0.466915 0.5 0.72205 -0.538856
374 1 0.998664 0.432552 0.5 0.646474 -0.237805
375 1 0.096601 0.26878 0.5 -0.424895 0.606956
376 1 0.955112 0.424296 0.5 0.220845 -0.556349
377 1 0.89847 0.586421 0.5 -0.684431 0.337493
378 1 0.998543 0.378702 0.5 0.831381 0.0177968
379 1 0.983501 0.00423607 0.5 -0.515334 -0.0490986
380 1 0.0750831 0.327543 0.5 0.121379 0.910458
381 1 0.0316585 0.375673 0.5 -0.267343 -0.336344
382 1 0.0588996 0.161065 0.5 -0.563492 -0.581241
383 1 0.0583717 0.422768 0.5 0.784121 -0.0251526
384 1 0.044094 0.348134 0.5 -0.0790835 -0.564766
385 1 0.0843979 0.357033 0.5 0.102821 0.629675
386 1 0.936598 0.620887 0.5 -0.72964 0.303021
387 1 0.0416318 0.431629 0.5 0.849736 0.423478
388 1 0.0237437 0.228235 0.5 -0.416245 -0.554179
389 1 0.183528 0.240313 0.5 -0.404159 -0.428885
390 1 0.0281615 0.39417 0.5 0.607292 -0.50379
391 1 0.919117 0.546648 0.5 -0.818685 0.291859
392 1 0.944993 0.375897 0.5 0.242949 -0.563528
393 1 0.949269 0.592593 0.5 -0.225219 -0.790708
394 1 0.82145 0.23533 0.5 0.189886 -0.75192
395 1 0.0327405 0.149648 0.5 0.0705273 -0.733566
396 1 0.878828 0.291893 0.5 0.400227 -0.769311
397 1 0.958327 0.51029 0.5 0.727866 -0.598187
398 1 0.892336 0.328012 0.5 0.952933 0.155343
399 1 0.0278412 0.302885 0.5 -0.108777 -0.0906189
400 1 0.912176 0.35396 0.5 0.446311 -0.639397
401 1 0.020615 0.413307 0.5 0.9608 -0.104966
402 1 0.991104 0.35122 0.5 0.718504 -0.628571
403 1 0.101238 0.390294 0.5 0.161654 0.545826
404 1 0.972144 0.480521 0.5 0.786478 -0.216814
405 1 0.988888 0.378911 0.5 0.162702 -0.267556
406 1 0.0151448 0.191784 0.5 0.123523 -0.669063
407 1 0.942898 0.554587 0.5 -0.568759 -0.290448
408 1 0.107542 0.281358 0.5 -0.502844 0.578667
409 1 0.00596442 0.262675 0.5 -0.331513 -0.775289
410 1 0.00373266 0.320906 0.5 0.484634 -0.471964
411 1 0.00295778 0.164786 0.5 0.530969 -0.145052
412 1 0.0483268 0.387982 0.5 -0.525601 -0.300822
413 1 0.977761 0.146418 0.5 0.967582 0.214239
414 1 0.0185183 0.560164 0.5 0.7612 -0.175292
415 1 0.102438 0.252148 0.5 0 0
416 1 0.0725187 0.46474 0.5 0.72183 -0.0510817
417 1 0.0371999 0.423299 0.5 0.921375 -0.0216629
418 1 0.00922462 0.330116 0.5 0.90725 -0.337477
419 1 0.0995933 0.342263 0.5 0.400789 0.602585
420 1 0.205535 0.397636 0.5 0.923432 0.295146
421 1 0.994766 0.153225 0.5 -0.313628 -0.153449
422 1 0.123546 0.370412 0.5 -0.381256 0.221985
423 1 0.0157191 0.259078 0.5 -0.607495 -0.654532
424 1 0.0889115 0.472719 0.5 0.259952 -0.154249
425 1 0.0554558 0.304889 0.5 0.55817 0.289382
426 1 0.981197 0.352448 0.5 0.588214 -0.657751
427 1 0.147102 0.39889 0.5 -0.559454 0.717929
428 1 0.188526 0.436221 0.5 0.898194 -0.398783
429 1 0.972309 0.42638 0.5 0.0941038 0.0439741
430 1 0.0406377 0.291316 0.5 -0.405798 -0.0452426
431 1 0.0910399 0.294537 0.5 -0.0926767 0.554704
432 1 0.0872788 0.441839 0.5 -0.626912 -0.130029
433 1 0.112897 0.111164 0.5 0.0296936 -0.789
434 1 0.0679032 0.33434 0.5 0.184908 0.922712
435 1 0.132135 0.413744 0.5 -0.380119 0.356843
436 1 0.00948578 0.302801 0.5 0.0186899 -0.583427
437 1 0.949038 0.465886 0.5 0.821883 -0.281813
438 1 0.917111 0.395144 0.5 0.619082 -0.180625
439 1 0.071865 0.234119 0.5 -0.309257 -0.869281
440 1 0.0563467 0.406129 0.5 0.615619 -0.0561064
441 1 0.938422 0.36857 0.5 -0.155335 -0.0694275
442 1 0.952058 0.62112 0.5 -0.274468 0.137188
443 1 0.0191434 0.358895 0.5 0.657021 -0.357003
444 1 0.938442 0.313519 0.5 0.70929 -0.00374542
445 1 0.804753 0.315825 0.5 0.025024 -0.909206
446 1 0.132246 0.489941 0.5 -0.871135 0.196373
447 1 0.999737 0.414075 0.5 0.643288 -0.248486
448 1 0.936567 0.536965 0.5 -0.842963 0.0848181
449 1 0.155536 0.392848 0.5 -0.260095 0.565297
450 1 0.161206 0.545877 0.5 -0.0311794 0.030953
451 1 0.971277 0.355844 0.5 0.635609 -0.284783
452 1 0.847868 0.623545 0.5 -0.313446 -0.131918
453 1 0.0182043 0.297736 0.5 -0.513175 -0.366494
454 1 0.0781783 0.444896 0.5 -0.175032 -0.216224
455 1 0.954011 0.278772 0.5 -0.680119 -0.567426
456 1 0.918481 0.334392 0.5 0.755746 -0.45419
457 1 0.847582 0.61379 0.5 -0.538417 -0.254051
458 1 0.934141 0.457452 0.5 0.855509 0.00978965
459 1 0.975361 0.344383 0.5 0.681219 -0.696303
460 1 0.0962866 0.479079 0.5 0.0815963 -0.73981
461 1 0.103564 0.439737 0.5 -0.297607 0.0262324
462 1 0.0736928 0.395635 0.5 0.7024 0.607013
463 1 0.987094 0.245076 0.5 -0.269815 -0.129806
464 1 0.0806809 0.280616 0.5 -0.400574 0.142067
465 1 0.951793 0.236849 0.5 0.121909 -0.62559
466 1 0.0975782 0.425776 0.5 -0.645526 -0.216653
467 1 0.998325 0.581157 0.5 -0.054495 0.521683
468 1 0.928007 0.427212 0.5 -0.485285 -0.215959
469 1 0.88644 0.362706 0.5 0.739709 -0.560035
470 1 0.0608995 0.150863 0.5 -0.0808899 -0.323454
471 1 0.194858 0.368844 0.5 -0.216587 0.683583
472 1 0.050173 0.449658 0.5 0.192473 0.367889
473 1 0.16141 0.266751 0.5 -0.384413 -0.247158
474 1 0.132031 0.478547 0.5 -0.491299 -0.162002
475 1 0.17927 0.471369 0.5 0.402862 0.572419
476 1 0.97154 0.282756 0.5 -0.196718 -0.180876
477 1 0.945423 0.42523 0.5 0 0
478 1 0.85883 0.610657 0.5 -0.340666 -0.843833
479 1 0.851772 0.391055 0.5 -0.30225 -0.896274
480 1 0.203234 0.425713 0.5 0.38242 -0.653037
481 1 0.079217 0.425492 0.5 -0.255856 0.624731
482 1 0.0204758 0.286842 0.5 -0.228212 -0.828414
483 1 0.088866 0.311981 0.5 0.192795 0.952992
484 1 0.997106 0.399314 0.5 0.529639 -0.39242
485 1 0.967819 0.14607 0.5 0.134367 -0.0349793
486 1 0.86797 0.293746 0.5 0.229961 -0.623885
487 1 0.96068 0.449462 0.5 -0.172657 0.546544
488 1 0.0269631 0.21905 0.5 -0.100985 -0.708803
489 1 0.970252 0.528444 0.5 0.800922 -0.331789
490 1 0.927033 0.415826 0.5 -0.209831 0.329591
491 1 0.0525837 0.295787 0.5 0.236385 0.845075
492 1 0.992997 0.236888 0.5 -0.252672 -0.591879
493 1 0.997963 0.187492 0.5 0.171845 -0.850439
494 1 0.955894 0.641795 0.5 0.15558 0.00415147
495 1 0.957728 0.173392 0.5 -0.157103 0.137064
496 1 0.076457 0.150645 0.5 0.107046 -0.0221921
497 1 0.00348603 0.273629 0.5 -0.0844216 -0.683024
498 1 0.0303784 0.468392 0.5 0.605777 -0.647677
499 1 0.0978865 0.447512 0.5 -0.48698 0.11611
500 1 0.0575021 0.332037 0.5 -0.0135559 0.341835
501 1 0.0966179 0.41379 0.5 -0.715465 0.225367
502 1 0.0916851 0.179312 0.5 -0.208032 -0.963801
503 1 0.982089 0.426441 0.5 0.838081 -0.152769
504 1 0.999558 0.330979 0.5 0.773921 -0.417657
505 1 0.0712645 0.344785 0.5 -0.151338 0.818189
506 1 0.0712334 0.510863 0.5 0.765455 -0.277753
507 1 0.0883038 0.428877 0.5 -0.50005 -0.159921
508 1 0.0279961 0.558859 0.5 0.911519 -0.325878
509 1 0.993361 0.370111 0.5 0.861431 -0.423792
510 1 0.0506336 0.260035 0.5 -0.670122 -0.192634
511 1 0.0731539 0.414637 0.5 0.65247 -0.103848
512 1 0.0148162 0.460024 0.5 0.920088 -0.337698
513 1 0.971866 0.500194 0.5 0.653806 -0.488181
514 1 0.0051047 0.42466 0.5 0.574019 -0.0950725
515 1 0.0498858 0.575036 0.5 0.632633 -0.733125
516 1 0.98805 0.470732 0.5 0.717843 -0.0466265
517 1 0.997865 0.647793 0.5 -0.603522 -0.274502
518 1 0.0351978 0.459383 0.5 0.814018 -0.40241
519 1 0.0548034 0.230061 0.5 0.0885726 -0.653652
520 1 0.934037 0.570017 0.5 -0.827344 -0.192562
521 1 0.963325 0.294692 0.5 -0.0120213 0.358725
522 1 0.838867 0.609331 0.5 -0.440673 -0.411886
523 1 0.0147596 0.404575 0.5 0.787507 -0.571623
524 1 0.985568 0.230723 0.5 -0.265151 -0.405575
525 1 0.126729 0.290098 0.5 0.141389 0.694423
526 1 0.137085 0.423199 0.5 0.10614 0.257319
527 1 0.992562 0.526618 0.5 0.527574 -0.419417
528 1 0.0775771 0.29946 0.5 -0.5343 -0.0570841
529 1 0.910991 0.183149 0.5 -0.285523 -0.240036
530 1 0.818056 0.302166 0.5 0.708072 -0.597802
531 1 0.0246802 0.459331 0.5 0.891163 -0.222422
532 1 0.15386 0.183952 0.5 -0.496506 -0.467546
533 1 0.104858 0.364064 0.5 0.03986 0.773162
534 1 0.0146783 0.440782 0.5 0.702003 0.507299
535 1 0.0493669 0.375844 0.5 -0.622491 0.171864
536 1 0.0888527 0.452499 0.5 -0.536821 -0.378142
537 1 0.974788 0.187657 0.5 0.371337 0.570865
538 1 0.0590067 0.277692 0.5 -0.731472 0.41645
539 1 0.0665073 0.40436 0.5 0.691542 0.0715038
540 1 0.909234 0.64174 0.5 0.450386 -0.203755
541 1 0.126616 0.47023 0.5 -0.358341 0.115837
542 1 0.0331033 0.353505 0.5 -0.445356 -0.035654
543 1 0.962072 0.501063 0.5 0.844552 -0.3589
544 1 0.00940847 0.21282 0.5 0.0433156 -0.883183
545 1 0.0223407 0.276622 0.5 -0.187188 -0.884091
546 1 0.260809 0.385907 0.5 0.922288 0.0628042
547 1 0.821009 0.640294 0.5 -0.81308 0.0529593
548 1 0.936758 0.435884 0.5 0.610288 -0.0172295
549 1 0.00759075 0.185672 0.5 -0.0568637 -0.817996
550 1 0.990785 0.283978 0.5 -0.0382794 -0.0851456
551 1 0.106602 0.374896 0.5 -0.0378113 0.845553
552 1 0.0687143 0.364876 0.5 0.292236 -0.33921
553 1 0.941984 0.239238 0.5 0.622609 -0.555065
554 1 0.0320522 0.43171 0.5 0.76027 0.219818
555 1 0.992571 0.274596 0.5 0.239284 -0.786466
556 1 0.894278 0.34547 0.5 0.689401 -0.600562
557 1 0.163654 0.321114 0.5 -0.188224 -0.142351
558 1 0.0907551 0.38911 0.5 0.357234 0.849451
559 1 0.893408 0.519969 0.5 -0.443277 0.317703
560 1 0.0975896 0.157924 0.5 -0.422681 -0.454901
561 1 0.954946 0.519378 0.5 0.61094 -0.372859
562 1 0.027471 0.512787 0.5 0.878055 -0.415754
563 1 0.119302 0.317901 0.5 -0.220372 0.204123
564 1 0.961053 0.35484 0.5 0.740735 -0.359298
565 1 0.998369 0.304263 0.5 0.509676 -0.627333
566 1 0.933179 0.579636 0.5 0.0118016 -0.217666
567 1 0.131494 0.433048 0.5 0.0240523 0.309311
568 1 0.837016 0.57359 0.5 -0.380503 -0.00291347
569 1 0.0909748 0.228205 0.5 -0.209532 -0.828538
570 1 0.866144 0.273522 0.5 0.139113 -0.433846
571 1 0.0674725 0.444944 0.5 0.28488 0.349205
572 1 0.105403 0.333891 0.5 0.185258 0.721478
573 1 0.0785301 0.269831 0.5 -0.713645 0.140246
574 1 0.987777 0.360973 0.5 0.699052 -0.531508
575 1 0.0463535 0.403894 0.5 0.751051 0.213134
576 1 0.0536688 0.34734 0.5 0.109804 -0.552834
577 1 0.101758 0.354224 0.5 0.233309 0.795441
578 1 0.0823997 0.319494 0.5 0.293686 0.928766
579 1 0.984544 0.315513 0.5 0.657563 -0.484312
580 1 0.0898994 0.284405 0.5 -0.715401 0.548625
581 1 0.0483698 0.274757 0.5 -0.476438 0.0976015
582 1 0.0511055 0.465604 0.5 0.592133 -0.586509
583 1 0.0160972 0.220289 0.5 0.190161 -0.722742
584 1 0.137519 0.384972 0.5 -0.686652 0.274187
585 1 0.938576 0.465979 0.5 0.677521 -0.39934
586 1 0.958018 0.659655 0.5 -0.294154 -0.439806
587 1 0.0729726 0.318056 0.5 0.33951 0.699409
588 1 0.0129415 0.321459 0.5 0.863789 -0.233433
589 1 0.0286234 0.331875 0.5 0.66725 -0.130335
590 1 0.106551 0.430639 0.5 -0.607001 0.138452
591 1 0.0237846 0.350303 0.5 0.0724128 -0.00749845
592 1 0.0429554 0.485013 0.5 0.703792 -0.315631
593 1 0.0591342 0.365941 0.5 0.503157 -0.237366
594 1 0.145076 0.287017 0.5 -0.788255 -0.19157
595 1 0.164644 0.509252 0.5 0.128591 0.728748
596 1 0.155435 0.294606 0.5 -0.04764 -0.199956
597 1 0.0747502 0.378367 0.5 0.549549 0.293178
598 1 0.90889 0.334422 0.5 0.497879 -0.663056
599 1 0.014953 0.269372 0.5 -0.576392 -0.640899
600 1 0.948105 0.435765 0.5 0.318762 0.635495
601 1 0.937034 0.358763 0.5 -0.0220823 0.151642
602 1 0.805825 0.578507 0.5 -0.898794 -0.327991
603 1 0.106083 0.543685 0.5 -0.0124209 -0.979197
604 1 0.991705 0.321982 0.5 0.382599 -0.73897
605 1 0.211412 0.495146 0.5 0.447529 0.726361
606 1 0.860387 0.168163 0.5 -0.338175 -0.0480183
607 1 0.0510359 0.432926 0.5 0.848665 0.364997
608 1 0.967647 0.241266 0.5 0.138215 -0.576546
609 1 0.965646 0.394718 0.5 0.434698 -0.59039
610 1 0.96467 0.420559 0.5 0.00797828 -0.630762
611 1 0.106341 0.474682 0.5 -0.572513 -0.400558
612 1 0.000554126 0.285936 0.5 0.182136 0.403297
613 1 0.967743 0.195494 0.5 0.0932702 0.924807
614 1 0.0154826 0.339627 0.5 0.756623 -0.404634
615 1 0.222214 0.389004 0.5 0.889069 -0.0153376
616 1 0.0738892 0.482406 0.5 0.845441 -0.460196
617 1 0.994037 0.423564 0.5 0.655064 -0.15513
618 1 0.0571287 0.443124 0.5 0.36317 0.522442
619 1 0.0620636 0.432661 0.5 0.839028 0.0781178
620 1 0.0865185 0.302962 0.5 0.237566 0.590552
621 1 0.00865238 0.48665 0.5 0.653577 0.26381
622 1 0.0868367 0.379811 0.5 0.19258 0.663329
623 1 0.00533749 0.439972 0.5 0.600589 0.0420686
624 1 0.130274 0.310321 0.5 -0.269949 -0.303165
625 1 0.0334174 0.259193 0.5 -0.739913 -0.0714657
626 1 0.0127466 0.278897 0.5 -0.360553 -0.649796
627 1 0.0686283 0.455425 0.5 0.163505 0.614891