ITEM: TIMESTEP
0
ITEM: NUMBER OF ATOMS
10762
ITEM: BOX BOUNDS pp pp pp
-5.8359999999999999e+01 5.8359999999999999e+01
-5.8359999999999999e+01 5.8359999999999999e+01
-5.0000000000000000e-01 5.0000000000000000e-01
ITEM: ATOMS id type xs ys zs c_002[1] c_002[2]
1 1 0.134518 0.12684 0.5 -0.793887 -0.484008
2 1 0.0582838 0.144838 0.5 -0.479877 -0.853337
3 1 0.0989571 0.0721488 0.5 0.00218849 -0.944151
4 1 0.0800106 0.186065 0.5 -0.592985 -0.719967
5 1 0.0667134 0.0927083 0.5 -0.263972 -0.949611
6 1 0.130415 0.19385 0.5 -0.409019 -0.842069
7 1 0.109039 0.222051 0.5 -0.609632 -0.540388
8 1 0.101282 0.157362 0.5 -0.419011 -0.844369
9 1 0.0435623 0.0630024 0.5 -0.287266 -0.60391
10 1 0.997142 0.0643877 0.5 -0.422303 -0.454248
11 1 0.0148961 0.0274289 0.5 -0.330844 -0.77464
12 1 0.0706337 0.225433 0.5 -0.708998 -0.532257
13 1 0.997611 0.024539 0.5 -0.583416 -0.545824
14 1 0.0852921 0.0863273 0.5 -0.342293 -0.70192
15 1 0.0115722 0.0955468 0.5 -0.730539 -0.456564
16 1 0.0603512 0.251831 0.5 -0.347259 -0.399167
17 1 0.0043365 0.0313948 0.5 -0.289972 -0.899653
18 1 0.0719441 0.994613 0.5 -0.586721 -0.583861
19 1 0.0682291 0.141671 0.5 -0.516377 -0.734509
20 1 0.96287 0.0688898 0.5 -0.554147 -0.804582
21 1 0.158431 0.146055 0.5 -0.298886 -0.849798
22 1 0.0987719 0.166752 0.5 -0.577262 -0.552147
23 1 0.110258 0.0581572 0.5 -0.419685 -0.502252
24 1 0.0842329 0.153597 0.5 -0.439983 -0.650379
25 1 0.0382198 0.103231 0.5 -0.789852 -0.558756
26 1 0.0893313 0.181689 0.5 -0.761581 -0.628271
27 1 0.0816284 0.106452 0.5 -0.629705 -0.731695
28 1 0.165844 0.268841 0.5 -0.246753 -0.829221
29 1 0.14188 0.238165 0.5 -0.833246 -0.238765
30 1 0.0719327 0.00585816 0.5 -0.872534 -0.364668
31 1 0.112382 0.142285 0.5 -0.254588 -0.819411
32 1 0.1371 0.163429 0.5 -0.425376 -0.705817
33 1 0.119582 0.207675 0.5 -0.861253 -0.35892
34 1 0.0874801 0.133022 0.5 -0.337938 -0.894745
35 1 0.134397 0.173273 0.5 -0.355455 -0.871291
36 1 0.126736 0.22467 0.5 -0.559337 -0.639678
37 1 0.0465937 0.997316 0.5 -0.580222 -0.803803
38 1 0.0498071 0.186019 0.5 -0.276494 -0.724491
39 1 0.0149774 0.237586 0.5 -0.641106 -0.724458
40 1 0.118045 0.114037 0.5 -0.0752618 -0.823338
41 1 0.140455 0.143418 0.5 -0.221309 -0.933463
42 1 0.0893439 0.228734 0.5 -0.632691 -0.631948
43 1 0.175837 0.265826 0.5 -0.458732 -0.787545
44 1 0.0374093 0.0457409 0.5 -0.482464 -0.493989
45 1 0.0774264 0.195713 0.5 -0.532612 -0.800003
46 1 0.0371064 0.115012 0.5 -0.648344 -0.684291
47 1 0.0380823 0.211556 0.5 -0.552418 -0.742806
48 1 0.123283 0.140134 0.5 0.133263 -0.849766
49 1 0.0582616 0.040394 0.5 -0.577463 -0.730539
50 1 0.0373975 0.0551543 0.5 -0.319151 -0.281468
51 1 0.0649072 0.162682 0.5 -0.803361 -0.390904
52 1 0.117765 0.227309 0.5 -0.363306 -0.641955
53 1 0.10501 0.031002 0.5 -0.390511 -0.836251
54 1 0.996038 0.083669 0.5 -0.885724 -0.345499
55 1 0.164024 0.163695 0.5 -0.195098 -0.899757
56 1 0.118193 0.265643 0.5 -0.356796 -0.420748
57 1 0.112637 0.190077 0.5 -0.303685 -0.831139
58 1 0.964351 0.0594582 0.5 -0.418235 -0.822232
59 1 0.0279469 0.0516809 0.5 -0.627099 -0.342649
60 1 0.0504377 0.245005 0.5 -0.247005 -0.876224
61 1 0.110561 0.202144 0.5 -0.598025 -0.623761
62 1 0.0972011 0.187946 0.5 -0.535854 -0.717164
63 1 0.142645 0.226516 0.5 -0.439343 -0.778983
64 1 0.049511 0.19557 0.5 -0.429776 -0.662534
65 1 0.09095 0.102483 0.5 -0.477511 -0.802931
66 1 0.0882222 0.239097 0.5 -0.327392 -0.811242
67 1 0.0131774 0.0861366 0.5 -0.585689 -0.702912
68 1 0.0855797 0.201679 0.5 -0.462318 -0.813535
69 1 0.0915281 0.0649813 0.5 -0.460732 -0.745235
70 1 0.0561177 0.167716 0.5 -0.410365 -0.543733
71 1 0.123876 0.245568 0.5 -0.267599 -0.854006
72 1 0.0409349 0.153121 0.5 -0.546487 -0.605358
73 1 0.129256 0.147533 0.5 -0.0355742 -0.731262
74 1 0.968778 0.0853386 0.5 -0.559203 -0.783215
75 1 0.0984729 0.224759 0.5 -0.555396 -0.743212
76 1 0.0846754 0.144033 0.5 -0.529439 -0.708282
77 1 0.0758184 0.052174 0.5 -0.350357 -0.68596
78 1 0.0692325 0.131013 0.5 -0.619792 -0.691105
79 1 0.042689 0.179472 0.5 -0.0488048 -0.93784
80 1 0.133372 0.136865 0.5 -0.37758 -0.732416
81 1 0.0794343 0.221443 0.5 -0.340358 -0.707928
82 1 0.0271045 0.224344 0.5 -0.395855 -0.902169
83 1 0.100179 0.215409 0.5 -0.530857 -0.828932
84 1 0.096857 0.130627 0.5 -0.538957 -0.669937
85 1 0.108049 0.0690773 0.5 -0.293887 -0.930502
86 1 0.0837063 0.0957594 0.5 -0.482037 -0.85734
87 1 0.0487514 0.0885676 0.5 -0.470119 -0.788009
88 1 0.0627683 0.0658704 0.5 -0.540561 -0.814384
89 1 0.135066 0.219247 0.5 -0.440171 -0.658019
90 1 0.034882 0.23059 0.5 -0.558414 -0.76724
91 1 0.051575 0.0230967 0.5 -0.579102 -0.716411
92 1 0.0283855 0.165418 0.5 -0.00137826 -0.864386
93 1 0.129592 0.0410135 0.5 -0.611577 -0.633231
94 1 0.0536896 0.117475 0.5 -0.538204 -0.713338
95 1 0.00586344 0.242129 0.5 -0.573109 -0.729231
96 1 0.0878596 0.191517 0.5 -0.546276 -0.791678
97 1 0.00425182 0.204369 0.5 -0.204944 -0.928912
98 1 0.928534 0.110385 0.5 -0.287929 -0.875807
99 1 0.1455 0.113543 0.5 -0.430247 -0.860485
100 1 0.170458 0.225582 0.5 -0.0895572 -0.335485
101 1 0.041268 0.142277 0.5 -0.780918 -0.537806
102 1 0.985417 0.0395196 0.5 -0.635256 -0.669593
103 1 0.0534235 0.0698217 0.5 -0.377982 -0.810758
104 1 0.0787439 0.231255 0.5 -0.681744 -0.429431
105 1 0.0569504 0.155061 0.5 -0.670894 -0.627714
106 1 0.0272386 0.119111 0.5 -0.715439 -0.680076
107 1 0.991912 0.11476 0.5 -0.797805 -0.53147
108 1 0.115065 0.180177 0.5 -0.359687 -0.911656
109 1 0.0801144 0.00118873 0.5 -0.577708 -0.473536
110 1 0.0564994 0.202823 0.5 -0.344447 -0.794098
111 1 0.0775917 0.0314491 0.5 -0.512716 -0.730591
112 1 0.060441 0.183498 0.5 -0.221363 -0.751293
113 1 0.0908787 0.160756 0.5 -0.358781 -0.734657
114 1 0.121155 0.256186 0.5 -0.177352 -0.933009
115 1 0.0535585 0.176847 0.5 0.0883993 -0.920282
116 1 0.109831 0.163443 0.5 -0.524808 -0.709547
117 1 0.0244596 0.185488 0.5 -0.638156 -0.5354
118 1 0.0618372 0.124738 0.5 -0.605946 -0.768891
119 1 0.0762893 0.0893721 0.5 -0.22241 -0.955161
120 1 0.08213 0.164628 0.5 -0.608463 -0.726785
121 1 0.93054 0.0993532 0.5 -0.266274 -0.891889
122 1 0.154938 0.271393 0.5 -0.362442 -0.879393
123 1 0.118598 0.159575 0.5 -0.474827 -0.654199
124 1 0.125041 0.13008 0.5 -0.549579 -0.662403
125 1 0.987139 0.0297827 0.5 -0.529418 -0.751552
126 1 0.0287365 0.00402964 0.5 -0.438478 -0.784186
127 1 0.0567496 0.0497865 0.5 -0.626338 -0.748138
128 1 0.0981865 0.0138686 0.5 -0.553089 -0.708916
129 1 0.137464 0.107343 0.5 -0.502144 -0.687311
130 1 0.079051 0.241445 0.5 -0.557742 -0.214617
131 1 0.0896278 0.218878 0.5 -0.226046 -0.719461
132 1 0.0291288 0.992411 0.5 -0.498887 -0.581699
133 1 0.0508113 0.034061 0.5 -0.380974 -0.762173
134 1 0.047678 0.0527275 0.5 -0.302107 -0.657811
135 1 0.0965271 0.140242 0.5 -0.556433 -0.725976
136 1 0.0212654 0.102293 0.5 -0.71729 -0.604989
137 1 0.0095505 0.0593215 0.5 -0.770596 -0.557009
138 1 0.112236 0.249041 0.5 -0.376745 -0.781346
139 1 0.0245577 0.0715638 0.5 -0.527008 -0.703555
140 1 0.0289526 0.214462 0.5 -0.428857 -0.895465
141 1 0.170977 0.284955 0.5 -0.69854 -0.627957
142 1 0.130318 0.995548 0.5 -0.610582 -0.587225
143 1 0.0848781 0.262224 0.5 -0.563148 -0.338349
144 1 0.00972272 0.116069 0.5 -0.416358 -0.874499
145 1 0.0869065 0.0291471 0.5 -0.568487 -0.564631
146 1 0.0941676 0.151314 0.5 -0.285176 -0.8193
147 1 0.0641143 0.208364 0.5 -0.343481 -0.721353
148 1 0.0930007 0.209145 0.5 -0.190137 -0.911281
149 1 0.979651 0.232312 0.5 -0.471891 -0.808924
150 1 0.0506398 0.0789985 0.5 -0.249497 -0.926784
151 1 0.114648 0.0284471 0.5 -0.328433 -0.801039
152 1 0.0389472 0.163901 0.5 -0.150643 -0.711304
153 1 0.0631777 0.218029 0.5 -0.647432 -0.618081
154 1 0.103609 0.0897754 0.5 -0.122894 -0.91229
155 1 0.0809979 0.116516 0.5 -0.706619 -0.659769
156 1 0.0630856 0.114015 0.5 -0.568398 -0.775373
157 1 0.0410791 0.0267983 0.5 -0.526864 -0.778625
158 1 0.0597891 0.242129 0.5 -0.473211 -0.3092
159 1 0.04887 0.148212 0.5 -0.696623 -0.588847
160 1 0.946174 0.0564071 0.5 -0.321826 -0.818801
161 1 0.0183163 0.122964 0.5 -0.597522 -0.714232
162 1 0.00824401 0.0689307 0.5 -0.475387 -0.529962
163 1 0.0347539 0.0669863 0.5 -0.742886 -0.57732
164 1 0.10236 0.263069 0.5 -0.612676 -0.756746
165 1 0.0690043 0.0255953 0.5 -0.76796 -0.548747
166 1 0.0304459 0.0979134 0.5 -0.868158 -0.280975
167 1 0.152266 0.223438 0.5 -0.114603 -0.962291
168 1 0.994537 0.0942613 0.5 -0.669487 -0.668705
169 1 0.114761 0.123255 0.5 -0.231337 -0.612904
170 1 0.0575573 0.095674 0.5 -0.325298 -0.877669
171 1 0.0700412 0.0722376 0.5 -0.550907 -0.756735
172 1 0.0307949 0.204356 0.5 -0.600739 -0.67212
173 1 0.0692666 0.0824576 0.5 -0.458693 -0.803029
174 1 0.10826 0.115261 0.5 -0.157409 -0.767724
175 1 0.0542985 0.222881 0.5 -0.726775 -0.575549
176 1 0.0334382 0.182449 0.5 -0.315289 -0.905058
177 1 0.0716386 0.247379 0.5 -0.463548 -0.114122
178 1 0.0981455 0.177928 0.5 -0.873815 -0.467104
179 1 0.122945 0.186415 0.5 -0.2613 -0.919352
180 1 0.137496 0.154004 0.5 -0.585876 -0.698205
181 1 0.0463686 0.110078 0.5 -0.570856 -0.701892
182 1 0.0659832 0.151028 0.5 -0.428633 -0.81043
183 1 0.972496 0.016341 0.5 -0.454218 -0.623228
184 1 0.0645847 0.0555774 0.5 -0.515286 -0.828854
185 1 0.0899433 0.112845 0.5 -0.851104 -0.469195
186 1 0.0447082 0.22716 0.5 -0.696864 -0.682418
187 1 0.117373 0.00897814 0.5 -0.194288 -0.942987
188 1 0.0966949 0.0241354 0.5 -0.649892 -0.667479
189 1 0.109728 0.105576 0.5 -0.17754 -0.83001
190 1 0.0235514 0.244673 0.5 -0.616515 -0.767419
191 1 0.0461755 0.217284 0.5 -0.842649 -0.470653
192 1 0.156976 0.261345 0.5 -0.20294 -0.943511
193 1 0.0555743 0.106673 0.5 -0.30436 -0.92695
194 1 0.160353 0.13634 0.5 -0.640889 -0.710983
195 1 0.0371388 0.268325 0.5 -0.551956 -0.758111
196 1 0.10363 0.253407 0.5 -0.525147 -0.750943
197 1 0.00487402 0.078476 0.5 -0.501611 -0.484152
198 1 0.150094 0.233026 0.5 -0.448719 -0.472746
199 1 0.992869 0.103839 0.5 -0.775605 -0.542098
200 1 0.177421 0.149606 0.5 -0.18994 -0.815298
201 1 0.998322 0.0143696 0.5 -0.464603 -0.626492
202 1 0.105125 0.136228 0.5 -0.747662 -0.600892
203 1 0.127797 0.213052 0.5 -0.743326 -0.573167
204 1 0.0893109 0.0743477 0.5 -0.192882 -0.6617
205 1 0.119311 0.104349 0.5 -0.341443 -0.751046
206 1 0.153435 0.167026 0.5 -0.518683 -0.825343
207 1 0.0699335 0.189607 0.5 -0.443535 -0.812635
208 1 0.059413 0.0860777 0.5 -0.376364 -0.879426
209 1 0.0646577 0.103883 0.5 -0.431999 -0.759812
210 1 0.162282 0.220749 0.5 -0.275804 -0.831875
211 1 0.0796624 0.0696498 0.5 -0.371189 -0.625711
212 1 0.0554585 0.260797 0.5 -0.315805 -0.518035
213 1 0.00740776 0.184238 0.5 -0.450179 -0.744328
214 1 0.0465914 0.169248 0.5 -0.0674541 -0.79402
215 1 0.095022 0.246118 0.5 -0.327591 -0.877446
216 1 0.0146878 0.142629 0.5 -0.490136 -0.823996
217 1 0.0812685 0.176081 0.5 -0.689493 -0.661865
218 1 0.0529574 0.128619 0.5 -0.34855 -0.817007
219 1 0.0480528 0.254461 0.5 -0.341332 -0.842119
220 1 0.0549476 0.00374646 0.5 -0.590666 -0.68565
221 1 0.0454108 0.121818 0.5 -0.405125 -0.737985
222 1 0.115156 0.238823 0.5 -0.280416 -0.923012
223 1 0.0970059 0.234865 0.5 -0.612782 -0.76225
224 1 0.0400526 0.189578 0.5 -0.451305 -0.666536
225 1 0.0765381 0.0415701 0.5 -0.653785 -0.650799
226 1 0.134018 0.230699 0.5 -0.728148 -0.530188
227 1 0.0863548 0.0389813 0.5 -0.552902 -0.72903
228 1 0.0452889 0.00710613 0.5 -0.430025 -0.887611
229 1 0.0718093 0.0618763 0.5 -0.153992 -0.844953
230 1 0.115178 0.132531 0.5 -0.406388 -0.626581
231 1 0.105871 0.0798753 0.5 -0.0912478 -0.893283
232 1 0.128622 0.10089 0.5 -0.535169 -0.78125
233 1 0.0400382 0.199777 0.5 -0.584706 -0.587061
234 1 0.101686 0.205748 0.5 -0.441379 -0.800347
235 1 0.0433374 0.0723131 0.5 -0.523127 -0.652694
236 1 0.0596501 0.193269 0.5 -0.362804 -0.780277
237 1 0.147217 0.150637 0.5 -0.32467 -0.86807
238 1 0.0326886 0.146636 0.5 -0.538191 -0.727002
239 1 0.105921 0.183308 0.5 -0.560801 -0.702618
240 1 0.126396 0.167435 0.5 -0.389558 -0.874947
241 1 0.0551816 0.212245 0.5 -0.85668 -0.415108
242 1 0.0261557 0.128559 0.5 -0.57118 -0.740446
243 1 0.103785 0.194646 0.5 -0.336877 -0.81227
244 1 0.107274 0.173298 0.5 -0.480406 -0.779469
245 1 0.0986994 0.108348 0.5 -0.54078 -0.549331
246 1 0.127885 0.282738 0.5 -0.501049 -0.756771
247 1 0.0240884 0.0230599 0.5 -0.429608 -0.791774
248 1 0.0163814 0.180426 0.5 -0.591055 -0.554597
249 1 0.0674585 0.199541 0.5 -0.262374 -0.858629
250 1 0.0335325 0.135515 0.5 -0.550887 -0.75544
251 1 0.0481175 0.0992812 0.5 -0.56957 -0.750043
252 1 0.0466883 0.207371 0.5 -0.582792 -0.520564
253 1 0.0789758 0.0791417 0.5 -0.417785 -0.749544
254 1 0.0646305 0.172745 0.5 -0.50966 -0.516674
255 1 0.00251619 0.0420876 0.5 -0.278874 -0.930586
256 1 0.0660064 0.0458826 0.5 -0.697223 -0.654405
257 1 0.105586 0.126556 0.5 -0.496367 -0.619717
258 1 0.136789 0.209842 0.5 -0.512214 -0.849823
259 1 0.0734929 0.157989 0.5 -0.628962 -0.633423
260 1 0.0295154 0.0391831 0.5 -0.512441 -0.451706
261 1 0.00245044 0.109631 0.5 -0.664632 -0.581712
262 1 0.0302917 0.0872243 0.5 -0.727822 -0.381277
263 1 0.0718984 0.120932 0.5 -0.626609 -0.692619
264 1 0.999844 0.119968 0.5 -0.604698 -0.665232
265 1 0.0622499 0.0100776 0.5 -0.677932 -0.663642
266 1 0.999807 0.223851 0.5 -0.462061 -0.847493
267 1 0.109562 0.21169 0.5 -0.792774 -0.56246
268 1 0.0367697 0.221255 0.5 -0.541426 -0.807447
269 1 0.0834037 0.211794 0.5 -0.0186461 -0.876851
270 1 0.128058 0.202766 0.5 -0.65285 -0.502487
271 1 0.139933 0.25879 0.5 -0.828255 -0.497919
272 1 0.00979379 0.172533 0.5 -0.425408 -0.762628
273 1 0.0943287 0.0459437 0.5 -0.347837 -0.80928
274 1 0.0991169 0.118897 0.5 -0.57093 -0.501091
275 1 0.08297 0.0591421 0.5 -0.270525 -0.844883
276 1 0.0526086 0.233445 0.5 -0.411858 -0.766879
277 1 0.0162213 0.227974 0.5 -0.19368 -0.829038
278 1 0.0723135 0.179957 0.5 -0.469274 -0.7878
279 1 0.119352 0.148919 0.5 -0.0987965 -0.663847
280 1 0.0958402 0.0813375 0.5 0.0314214 -0.836987
281 1 0.0730177 0.168371 0.5 -0.770649 -0.514161
282 1 0.0311622 0.192658 0.5 -0.504033 -0.594528
283 1 0.090295 0.172459 0.5 -0.723207 -0.451557
284 1 0.0604426 0.135413 0.5 -0.467274 -0.796867
285 1 0.0069727 0.020892 0.5 -0.526662 -0.813667
286 1 0.0949376 0.197943 0.5 -0.300616 -0.882576
287 1 0.035229 0.124649 0.5 -0.473503 -0.804001
288 1 0.117465 0.170327 0.5 -0.338416 -0.902381
289 1 0.124605 0.236105 0.5 -0.367614 -0.66377
290 1 0.0552132 0.993886 0.5 -0.652807 -0.492289
291 1 0.0195678 0.218133 0.5 -0.257276 -0.902697
292 1 0.0593401 0.0306386 0.5 -0.700661 -0.568343
293 1 0.0961093 0.0344992 0.5 -0.713779 -0.57068
294 1 0.0770203 0.136894 0.5 -0.556655 -0.714272
295 1 0.103763 0.14682 0.5 -0.464967 -0.722108
296 1 0.0439506 0.237751 0.5 -0.323283 -0.743102
297 1 9.55972e-05 0.051568 0.5 -0.339151 -0.771222
298 1 0.13243 0.183843 0.5 -0.371601 -0.904211
299 1 0.0224834 0.0812613 0.5 -0.656706 -0.649847
300 1 0.0268985 0.0616167 0.5 -0.667355 -0.582236
301 1 0.0855678 0.248335 0.5 -0.121138 -0.538249
302 1 0.133018 0.0218964 0.5 -0.655936 -0.737043
303 1 0.936824 0.0597005 0.5 -0.408143 -0.880961
304 1 0.0189894 0.00716205 0.5 -0.370976 -0.889127
305 1 0.0620941 0.230141 0.5 -0.617998 -0.669995
306 1 0.95944 0.089459 0.5 -0.593574 -0.692152
307 1 0.125065 0.120393 0.5 -0.514526 -0.703002
308 1 0.00618351 0.194321 0.5 -0.495712 -0.845571
309 1 0.150132 0.140307 0.5 -0.352934 -0.839171
310 1 0.0608473 0.0762809 0.5 -0.513509 -0.798149
311 1 0.0339906 0.0205068 0.5 -0.315531 -0.920597
312 1 0.118071 0.217188 0.5 -0.779883 -0.505904
313 1 0.0728262 0.109731 0.5 -0.744906 -0.628245
314 1 0.0217603 0.0918041 0.5 -0.861795 -0.430548
315 1 0.0411374 0.0823615 0.5 -0.52548 -0.813255
316 1 0.0302459 0.261668 0.5 -0.462985 -0.835079
317 1 0.150346 0.243318 0.5 -0.550927 -0.47767
318 1 0.0232752 0.975783 0.5 -0.409756 -0.65346
319 1 0.0916758 0.276926 0.5 -0.518152 -0.77468
320 1 0.0390428 0.0921371 0.5 -0.714524 -0.421436
321 1 0.0289901 0.107918 0.5 -0.700224 -0.663067
322 1 0.0390818 0.258029 0.5 -0.51006 -0.846612
323 1 0.124645 0.176705 0.5 -0.413741 -0.905515
324 1 0.072282 0.214979 0.5 -0.221534 -0.881596
325 1 0.075674 0.148568 0.5 -0.510909 -0.660996
326 1 0.00664608 0.1361 0.5 -0.727839 -0.612829
327 1 0.0247787 0.233934 0.5 -0.600593 -0.708586
328 1 0.97864 0.0814883 0.5 -0.482698 -0.813066
329 1 0.0757633 0.206038 0.5 -0.300172 -0.757063
330 1 0.0795507 0.126741 0.5 -0.50776 -0.813781
331 1 0.0551823 0.0591682 0.5 -0.469875 -0.876008
332 1 0.0115763 0.0388033 0.5 -0.370436 -0.842797
333 1 0.0617841 0.451716 0.5 -0.133157 -0.389573
334 1 0.138606 0.414085 0.5 -0.516121 -0.382768
335 1 0.977241 0.462991 0.5 -0.61054 -0.450047
336 1 0.0302134 0.423353 0.5 -0.407596 -0.65865
337 1 0.142807 0.392981 0.5 -0.168976 -0.924147
338 1 0.0502256 0.371806 0.5 -0.61988 -0.397973
339 1 0.132075 0.309032 0.5 -0.718775 -0.611091
340 1 0.0784865 0.359714 0.5 -0.0137037 -0.974528
341 1 0.0848711 0.415828 0.5 -0.319668 -0.765207
342 1 0.000115633 0.341338 0.5 -0.312471 -0.904259
343 1 0.0233326 0.464624 0.5 -0.40064 -0.645164
344 1 0.0409135 0.306725 0.5 -0.40242 -0.850127
345 1 0.0683269 0.362357 0.5 -0.291669 -0.78284
346 1 0.0926241 0.423121 0.5 -0.617441 -0.537696
347 1 0.989697 0.439627 0.5 -0.0560801 -0.910761
348 1 0.118979 0.382344 0.5 0.0203467 -0.824487
349 1 0.0650366 0.336981 0.5 -0.493254 -0.695463
350 1 0.0539822 0.436752 0.5 -0.569479 -0.531903
351 1 0.0184523 0.275462 0.5 -0.695095 -0.609756
352 1 0.0455135 0.391761 0.5 -0.276433 -0.909374
353 1 0.152864 0.291509 0.5 -0.393482 -0.846173
354 1 0.150331 0.399641 0.5 -0.388856 -0.902419
355 1 0.137124 0.335614 0.5 -0.616286 -0.727667
356 1 0.166438 0.315011 0.5 -0.520656 -0.820613
357 1 0.122032 0.361542 0.5 -0.0314753 -0.897666
358 1 0.0783315 0.290329 0.5 -0.589009 -0.445514
359 1 0.103256 0.320126 0.5 -0.560655 -0.802181
360 1 0.146637 0.332231 0.5 -0.301676 -0.853373
361 1 0.126873 0.42751 0.5 -0.230452 -0.867139
362 1 0.016217 0.508339 0.5 -0.550465 -0.761148
363 1 0.0826131 0.425745 0.5 -0.430631 -0.793913
364 1 0.0831946 0.376628 0.5 -0.423382 -0.868037
365 1 0.147863 0.322732 0.5 -0.547792 -0.804028
366 1 0.0629372 0.431418 0.5 -0.301809 -0.693928
367 1 0.0787137 0.255179 0.5 -0.0177866 -0.49597
368 1 0.0928573 0.324181 0.5 -0.727203 -0.472251
369 1 0.026758 0.495048 0.5 -0.543842 -0.600527
370 1 0.0797502 0.397022 0.5 -0.51392 -0.663738
371 1 0.135438 0.290413 0.5 -0.354492 -0.6307
372 1 0.072795 0.342536 0.5 -0.654628 -0.709288
373 1 0.00658441 0.464289 0.5 -0.516766 -0.24501
374 1 0.083478 0.271763 0.5 -0.56648 -0.682307
375 1 0.0785752 0.408855 0.5 -0.31198 -0.667587
376 1 0.145264 0.285158 0.5 -0.759614 -0.553554
377 1 0.091274 0.334429 0.5 -0.796338 -0.551889
378 1 0.114252 0.316836 0.5 -0.451269 -0.718357
379 1 0.0278262 0.435326 0.5 -0.135332 -0.84703
380 1 0.11489 0.306702 0.5 -0.752563 -0.627763
381 1 0.0587655 0.414809 0.5 0.196431 -0.969696
382 1 0.0697385 0.295419 0.5 -0.632345 -0.543092
383 1 0.0787551 0.302146 0.5 -0.648647 -0.354283
384 1 0.0359015 0.394184 0.5 -0.393827 -0.825801
385 1 0.112817 0.364875 0.5 -0.514916 -0.766808
386 1 0.0333947 0.404138 0.5 -0.26226 -0.902922
387 1 0.0690872 0.4123 0.5 0.0139115 -0.950023
388 1 0.173442 0.372225 0.5 -0.726846 -0.624708
389 1 0.0347127 0.290089 0.5 -0.308795 -0.740747
390 1 0.0936605 0.266798 0.5 -0.719943 -0.444314
391 1 0.108543 0.433553 0.5 -0.633448 -0.621971
392 1 0.0644414 0.384192 0.5 -0.556524 -0.416581
393 1 0.107983 0.290954 0.5 -0.676914 -0.637887
394 1 0.114997 0.392148 0.5 -0.0635625 -0.411335
395 1 0.0276441 0.484494 0.5 -0.250111 -0.782667
396 1 0.0395059 0.421543 0.5 -0.20719 -0.823236
397 1 0.0416968 0.296753 0.5 -0.540099 -0.652749
398 1 0.0716512 0.401921 0.5 -0.365238 -0.710576
399 1 0.119329 0.420133 0.5 -0.205049 -0.916772
400 1 0.0471427 0.265092 0.5 -0.648317 -0.683164
401 1 0.0954415 0.449577 0.5 -0.651298 -0.364073
402 1 0.0907291 0.491263 0.5 -0.575198 -0.780251
403 1 0.103 0.369469 0.5 -0.565694 -0.758899
404 1 0.0410146 0.364322 0.5 -0.646033 -0.651278
405 1 0.132566 0.40666 0.5 -0.384813 -0.740595
406 1 0.0587597 0.320514 0.5 -0.458166 -0.471904
407 1 0.132484 0.358422 0.5 0.0633456 -0.874399
408 1 0.0882433 0.443094 0.5 -0.297171 -0.829067
409 1 0.997598 0.505335 0.5 -0.462484 -0.791354
410 1 0.0364612 0.337345 0.5 -0.543029 -0.801396
411 1 0.0178076 0.486276 0.5 -0.119935 -0.779473
412 1 0.0284349 0.329854 0.5 -0.513867 -0.77145
413 1 0.121568 0.323695 0.5 -0.393771 -0.860869
414 1 0.00673172 0.396358 0.5 -0.422453 -0.883517
415 1 0.0514464 0.503384 0.5 -0.792467 -0.430529
416 1 0.0217246 0.254288 0.5 -0.635349 -0.665288
417 1 0.129862 0.263536 0.5 -0.488543 -0.663426
418 1 0.99478 0.455521 0.5 -0.548266 -0.515455
419 1 0.0938685 0.303039 0.5 -0.124549 -0.241553
420 1 0.0132549 0.4234 0.5 -0.668701 -0.33113
421 1 0.091248 0.432673 0.5 -0.376456 -0.835069
422 1 0.0585417 0.376449 0.5 -0.567404 -0.359151
423 1 0.098207 0.399931 0.5 0.257503 -0.742648
424 1 0.187468 0.345586 0.5 -0.623706 -0.641226
425 1 0.022193 0.418119 0.5 -0.970309 -0.192315
426 1 0.0432094 0.353436 0.5 -0.612924 -0.602925
427 1 0.077079 0.313035 0.5 -0.353822 -0.837165
428 1 0.993219 0.487578 0.5 -0.264231 -0.629865
429 1 0.027829 0.272562 0.5 -0.568399 -0.623456
430 1 0.100498 0.379707 0.5 -0.584905 -0.66129
431 1 0.990542 0.286233 0.5 -0.582477 -0.711071
432 1 0.986475 0.45984 0.5 -0.673788 -0.557584
433 1 0.0867233 0.295641 0.5 -0.26491 -0.423679
434 1 0.0107211 0.375348 0.5 -0.000137361 -0.82886
435 1 0.0709361 0.284004 0.5 -0.53967 -0.703836
436 1 0.138499 0.325951 0.5 -0.467825 -0.84739
437 1 0.110962 0.375397 0.5 -0.593192 -0.743042
438 1 0.0618337 0.405054 0.5 0.0143291 -0.961779
439 1 0.141768 0.305972 0.5 -0.724845 -0.592616
440 1 0.072328 0.440262 0.5 -0.408954 -0.72049
441 1 0.0908787 0.393033 0.5 -0.438533 -0.719134
442 1 0.0950241 0.470721 0.5 -0.710699 -0.645903
443 1 0.0142998 0.36636 0.5 -0.125622 -0.60466
444 1 0.0587046 0.366577 0.5 -0.833362 -0.397619
445 1 0.0750314 0.478106 0.5 0.0627816 -0.954897
446 1 0.0296405 0.472347 0.5 0.0161352 -0.754287
447 1 0.00977362 0.338587 0.5 -0.369768 -0.730644
448 1 0.0446445 0.343677 0.5 -0.709695 -0.679025
449 1 0.0485516 0.417546 0.5 -0.286006 -0.843994
450 1 0.104099 0.466424 0.5 -0.746021 -0.607338
451 1 0.0953738 0.313699 0.5 -0.632222 -0.346832
452 1 0.051699 0.407415 0.5 -0.20806 -0.874443
453 1 0.148643 0.409167 0.5 -0.639562 -0.660556
454 1 0.128377 0.379548 0.5 -0.268782 -0.853566
455 1 0.0672659 0.460191 0.5 0.0491971 -0.448718
456 1 0.156853 0.318911 0.5 -0.597704 -0.744708
457 1 0.0632415 0.277282 0.5 -0.521598 -0.761676
458 1 0.0254332 0.398367 0.5 -0.481473 -0.705864
459 1 0.126379 0.350274 0.5 -0.321916 -0.51793
460 1 0.983998 0.480347 0.5 -0.482856 -0.796371
461 1 0.161547 0.386893 0.5 -0.46655 -0.54999
462 1 0.11498 0.404552 0.5 -0.488763 -0.658764
463 1 0.0483671 0.381465 0.5 -0.382728 -0.817716
464 1 0.0727873 0.488018 0.5 -0.180662 -0.8182
465 1 0.00202115 0.427438 0.5 -0.331307 -0.8254
466 1 0.956987 0.480605 0.5 -0.402907 -0.746129
467 1 0.107721 0.398619 0.5 0.0470378 -0.411627
468 1 0.121134 0.46856 0.5 -0.636202 -0.727844
469 1 0.0300428 0.369056 0.5 -0.53186 -0.654866
470 1 0.0391654 0.470468 0.5 -0.12272 -0.75887
471 1 0.119696 0.276303 0.5 -0.736444 -0.38739
472 1 0.105568 0.242004 0.5 -0.446748 -0.828047
473 1 0.0344359 0.240333 0.5 -0.318131 -0.708241
474 1 0.0270581 0.341071 0.5 -0.246355 -0.904539
475 1 0.0135477 0.412751 0.5 -0.983637 -0.093659
476 1 0.065076 0.395139 0.5 -0.261246 -0.402387
477 1 0.98786 0.354995 0.5 0.00238298 -0.969232
478 1 0.0878012 0.464561 0.5 -0.67234 -0.37638
479 1 0.0456669 0.486766 0.5 -0.602681 -0.769012
480 1 0.0606171 0.509176 0.5 -0.458944 -0.47526
481 1 0.111105 0.259319 0.5 -0.606103 -0.739283
482 1 0.138683 0.268786 0.5 -0.711443 -0.598245
483 1 0.0649512 0.26765 0.5 -0.146294 -0.806529
484 1 0.129606 0.417871 0.5 -0.232033 -0.843878
485 1 0.0482676 0.466691 0.5 -0.321411 -0.693541
486 1 0.0816257 0.338625 0.5 -0.65986 -0.665119
487 1 0.0703552 0.236178 0.5 -0.925159 -0.0451149
488 1 0.0812238 0.349612 0.5 -0.429879 -0.680029
489 1 0.124938 0.390032 0.5 -0.158047 -0.727972
490 1 0.0869977 0.454569 0.5 -0.686877 -0.243345
491 1 0.149311 0.311651 0.5 -0.516378 -0.716874
492 1 0.0819329 0.435851 0.5 -0.489599 -0.720713
493 1 0.0585118 0.473599 0.5 -0.389257 -0.628426
494 1 0.017637 0.343755 0.5 -0.401816 -0.715899
495 1 0.141482 0.402359 0.5 -0.434038 -0.828962
496 1 0.995372 0.46781 0.5 -0.376808 -0.606772
497 1 0.046177 0.332912 0.5 -0.55293 -0.786991
498 1 0.0932052 0.372592 0.5 -0.377014 -0.880171
499 1 0.112166 0.414118 0.5 -0.371656 -0.87868
500 1 0.0436537 0.401415 0.5 -0.294741 -0.856091
501 1 0.164359 0.376101 0.5 -0.38405 -0.829155
502 1 0.0757192 0.419003 0.5 -0.158053 -0.965561
503 1 0.120218 0.370774 0.5 -0.403092 -0.769968
504 1 0.0619528 0.346283 0.5 -0.455412 -0.740421
505 1 0.0344543 0.452159 0.5 -0.425634 -0.797006
506 1 0.153782 0.280803 0.5 -0.583843 -0.696987
507 1 0.0157598 0.448279 0.5 -0.717167 -0.626125
508 1 0.0467695 0.429597 0.5 -0.128266 -0.741493
509 1 0.0225513 0.302907 0.5 -0.436864 -0.726459
510 1 0.072537 0.274568 0.5 -0.233974 -0.898824
511 1 0.0549879 0.271144 0.5 -0.65401 -0.70362
512 1 0.0241387 0.514812 0.5 -0.526992 -0.817824
513 1 0.0720175 0.352356 0.5 -0.290011 -0.690855
514 1 0.0181024 0.286743 0.5 -0.499751 -0.737587
515 1 0.0880209 0.356512 0.5 -0.403308 -0.792459
516 1 0.0169695 0.393082 0.5 -0.545966 -0.658748
517 1 0.108851 0.384806 0.5 -0.389892 -0.655587
518 1 0.0780863 0.458278 0.5 -0.406891 -0.641387
519 1 0.202268 0.428277 0.5 -0.307642 -0.795128
520 1 0.131855 0.253493 0.5 -0.492994 -0.630842
521 1 0.0047493 0.407607 0.5 -0.588868 -0.502846
522 1 0.125892 0.495894 0.5 -0.772423 -0.514024
523 1 0.0501416 0.359957 0.5 -0.460168 -0.678208
524 1 0.138833 0.47259 0.5 -0.34735 -0.723443
525 1 0.0992495 0.284087 0.5 -0.399122 -0.821086
526 1 0.102849 0.476216 0.5 -0.659948 -0.66152
527 1 0.167694 0.354895 0.5 -0.169756 -0.861491
528 1 0.125694 0.292452 0.5 -0.183712 -0.919368
529 1 9.16158e-05 0.494877 0.5 -0.292581 -0.822369
530 1 0.033324 0.461981 0.5 -0.0440925 -0.796026
531 1 0.0532636 0.349741 0.5 -0.404125 -0.806017
532 1 0.0150186 0.469457 0.5 -0.308949 -0.464134
533 1 0.0651108 0.480289 0.5 0.151691 -0.980174
534 1 0.0474784 0.476961 0.5 -0.631506 -0.715327
535 1 0.0240044 0.454203 0.5 -0.583553 -0.643694
536 1 0.0620077 0.441873 0.5 -0.554048 -0.482324
537 1 0.141971 0.354688 0.5 -0.110599 -0.814592
538 1 0.044411 0.438863 0.5 -0.270755 -0.819931
539 1 0.10983 0.336518 0.5 -0.372145 -0.844236
540 1 0.00520221 0.417972 0.5 -0.43755 -0.403973
541 1 0.0833956 0.329384 0.5 -0.674446 -0.615176
542 1 0.0591174 0.298515 0.5 -0.300938 -0.667685
543 1 0.159569 0.231773 0.5 -0.129578 -0.145255
544 1 0.164874 0.324558 0.5 -0.443412 -0.75319
545 1 0.0930287 0.480775 0.5 -0.496479 -0.824281
546 1 0.106862 0.444949 0.5 -0.66824 -0.572998
547 1 0.180045 0.339773 0.5 -0.486009 -0.702043
548 1 0.0255221 0.292738 0.5 -0.195585 -0.94769
549 1 0.00897887 0.490331 0.5 -0.583562 -0.696207
550 1 0.081383 0.281108 0.5 -0.400904 -0.732973
551 1 0.0737048 0.429669 0.5 -0.386793 -0.778854
552 1 0.155597 0.425927 0.5 -0.526256 -0.69695
553 1 0.0873766 0.402996 0.5 -0.146729 -0.639971
554 1 0.00172746 0.482732 0.5 -0.640704 -0.568978
555 1 0.093637 0.255808 0.5 -0.507768 -0.491428
556 1 0.0846052 0.319303 0.5 -0.68595 -0.589708
557 1 0.133595 0.39585 0.5 -0.524702 -0.741721
558 1 0.0155753 0.458059 0.5 -0.853882 -0.183722
559 1 0.133947 0.44431 0.5 -0.304818 -0.912737
560 1 0.0931879 0.410757 0.5 -0.212419 -0.476765
561 1 0.958311 0.422098 0.5 -0.249321 -0.768755
562 1 0.111255 0.326456 0.5 -0.298743 -0.890783
563 1 0.140862 0.3162 0.5 -0.503276 -0.740015
564 1 0.154944 0.437844 0.5 -0.554267 -0.557569
565 1 0.993588 0.477722 0.5 -0.58912 -0.619323
566 1 0.0371673 0.430963 0.5 -0.0730434 -0.822441
567 1 0.126478 0.340676 0.5 -0.658141 -0.554235
568 1 0.0311844 0.413688 0.5 -0.518437 -0.687722
569 1 0.145985 0.274728 0.5 -0.689787 -0.699048
570 1 0.0898002 0.286208 0.5 -0.295812 -0.78692
571 1 0.0307379 0.309393 0.5 -0.544658 -0.771473
572 1 0.0530723 0.49265 0.5 -0.635665 -0.706131
573 1 0.0966688 0.351746 0.5 -0.263921 -0.746364
574 1 0.00741867 0.289608 0.5 -0.453243 -0.8598
575 1 0.0998521 0.389014 0.5 -0.606223 -0.552921
576 1 0.0353901 0.490507 0.5 -0.599768 -0.70461
577 1 0.0530577 0.397414 0.5 -0.327573 -0.80739
578 1 0.0860567 0.308602 0.5 -0.793316 -0.276896
579 1 0.0374373 0.384368 0.5 -0.551206 -0.73461
580 1 0.107362 0.513071 0.5 -0.415263 -0.692149
581 1 0.136424 0.38595 0.5 -0.282025 -0.880199
582 1 0.0676147 0.315601 0.5 -0.51256 -0.597281
583 1 0.997697 0.446588 0.5 -0.182924 -0.917458
584 1 0.0388223 0.374336 0.5 -0.526233 -0.687537
585 1 0.0213759 0.47695 0.5 0.0712115 -0.725222
586 1 0.982467 0.387008 0.5 -0.242872 -0.856977
587 1 0.128787 0.329891 0.5 -0.523164 -0.800843
588 1 0.0502929 0.303384 0.5 -0.575846 -0.71945
589 1 0.13772 0.375992 0.5 -0.514011 -0.840966
590 1 0.11864 0.285858 0.5 -0.564425 -0.63484
591 1 0.00286826 0.330354 0.5 -0.329015 -0.527194
592 1 0.0558221 0.388293 0.5 -0.385808 -0.82354
593 1 0.0218564 0.427698 0.5 -0.404989 -0.374507
594 1 0.0105815 0.479 0.5 -0.114276 -0.772406
595 1 0.116079 0.296404 0.5 -0.659175 -0.65997
596 1 0.0403945 0.411206 0.5 -0.257138 -0.848928
597 1 0.129609 0.368463 0.5 -0.105317 -0.908293
598 1 0.0407926 0.247894 0.5 -0.105998 -0.925975
599 1 0.122131 0.410615 0.5 -0.311294 -0.913909
600 1 0.0123251 0.527943 0.5 -0.297637 -0.885867
601 1 0.0692918 0.257855 0.5 0.0812517 -0.782688
602 1 0.0278612 0.282417 0.5 -0.578207 -0.545734
603 1 0.0602329 0.356884 0.5 -0.464706 -0.804385
604 1 0.0552896 0.482559 0.5 -0.200565 -0.832415
605 1 0.0361547 0.277912 0.5 -0.777269 -0.541726
606 1 0.0726007 0.389333 0.5 -0.560162 -0.441482
607 1 0.0333957 0.510895 0.5 -0.560701 -0.801516
608 1 0.135209 0.346663 0.5 -0.464734 -0.681979
609 1 0.123256 0.313141 0.5 -0.754586 -0.616254
610 1 0.104918 0.454887 0.5 -0.58559 -0.597177
611 1 0.0955448 0.36348 0.5 -0.520624 -0.726145
612 1 0.100684 0.428393 0.5 -0.758206 -0.539337
613 1 0.110775 0.482705 0.5 -0.462034 -0.743624
614 1 0.132508 0.299548 0.5 -0.43494 -0.71821
615 1 0.103575 0.407754 0.5 0.0129645 -0.725579