# LAMMPS data file written by Ovito 3.7.11
10762 atoms
1 atom types
-58.36 58.36 xlo xhi
-58.36 58.36 ylo yhi
-0.5 0.5 zlo zhi

Atoms  # atomic

1 1 -42.65905904 -43.5552352 0.0
2 1 -51.557114864 -41.45450864 0.0
3 1 -46.809727288 -49.938792064 0.0
4 1 -49.021162768 -36.6424932 0.0
5 1 -50.573211952 -47.539087224 0.0
6 1 -43.1379612 -35.733828 0.0
7 1 -45.63296792 -32.44220728 0.0
8 1 -46.53836496 -39.99270736 0.0
9 1 -53.275408344 -51.006359872 0.0
10 1 58.02641424 -50.844667656 0.0
11 1 -56.621327208 -55.158498792 0.0
12 1 -50.115634536 -32.04746024 0.0
13 1 58.08115592 -55.49580792 0.0
14 1 -48.404706088 -48.283877544 0.0
15 1 -57.009292816 -47.207777504 0.0
16 1 -51.315807936 -28.96628568 0.0
17 1 -57.85384372 -54.695598944 0.0
18 1 -49.962684648 57.73122936 0.0
19 1 -50.396299448 -41.82416088 0.0
20 1 54.0261864 -50.319182544 0.0
21 1 -39.86793368 -41.3124604 0.0
22 1 -46.831343832 -38.89670656 0.0
23 1 -45.49068624 -51.571891616 0.0
24 1 -48.528335912 -40.43215816 0.0
25 1 -53.898984944 -46.31087768 0.0
26 1 -47.933250664 -37.15325992 0.0
27 1 -48.832333152 -45.93492256 0.0
28 1 -39.00268832 -26.98087848 0.0
29 1 -41.7997664 -30.5613812 0.0
30 1 -49.964015256 -57.6762355648 0.0
31 1 -45.24277296 -41.7524948 0.0
32 1 -42.357688 -39.28456712 0.0
33 1 -44.40238896 -34.120174 0.0
34 1 -48.149322728 -42.83367216 0.0
35 1 -42.67318216 -38.13557544 0.0
36 1 -43.56737408 -32.1365176 0.0
37 1 -52.921583336 58.04672352 0.0
38 1 -52.546515288 -36.64786232 0.0
39 1 -56.611837872 -30.62896208 0.0
40 1 -44.5817876 -45.04960136 0.0
41 1 -41.9660924 -41.62025104 0.0
42 1 -47.931779992 -31.66216752 0.0
43 1 -37.83630536 -27.33278928 0.0
44 1 -53.993586504 -53.021122152 0.0
45 1 -49.322790592 -35.51637864 0.0
46 1 -54.028940992 -44.93579936 0.0
47 1 -53.915033944 -33.66718368 0.0
48 1 -43.97040824 -42.00355952 0.0
49 1 -51.559706048 -53.64521232 0.0
50 1 -53.9949638 -51.922390104 0.0
51 1 -50.784031616 -39.37175696 0.0
52 1 -44.6144692 -31.82849352 0.0
53 1 -46.1032328 -54.74144656 0.0
54 1 57.89755536 -48.59415432 0.0
55 1 -39.21511872 -39.2535196 0.0
56 1 -44.56451304 -27.35414904 0.0
57 1 -45.21300936 -36.17421256 0.0
58 1 54.19904872 -51.420038896 0.0
59 1 -55.098037832 -52.327805352 0.0
60 1 -52.472911656 -29.7630164 0.0
61 1 -45.45532008 -34.76575232 0.0
62 1 -47.014687608 -36.42294288 0.0
63 1 -41.7104756 -31.92105248 0.0
64 1 -52.58107608 -35.5330696 0.0
65 1 -47.744316 -46.39818424 0.0
66 1 -48.062704816 -30.45259816 0.0
67 1 -56.821933872 -48.306136048 0.0
68 1 -48.371137416 -34.82002712 0.0
69 1 -47.676840168 -50.775382664 0.0
70 1 -51.809942056 -38.78418848 0.0
71 1 -43.90119328 -29.69730304 0.0
72 1 -53.582078472 -40.48771688 0.0
73 1 -43.27323968 -41.13994824 0.0
74 1 54.71576816 -48.399278608 0.0
75 1 -46.866243112 -32.12612952 0.0
76 1 -48.476687312 -41.54846824 0.0
77 1 -49.510476352 -52.27025072 0.0
78 1 -50.2791826 -43.06816264 0.0
79 1 -53.37733992 -37.41202816 0.0
80 1 -42.79282016 -42.3851172 0.0
81 1 -49.088428504 -32.51317304 0.0
82 1 -55.19636276 -32.17456832 0.0
83 1 -46.66710712 -33.21746152 0.0
84 1 -47.05485096 -43.11321656 0.0
85 1 -45.74852072 -50.297297544 0.0
86 1 -48.589800664 -47.182962832 0.0
87 1 -52.669736592 -48.022389728 0.0
88 1 -51.033684024 -50.671606912 0.0
89 1 -42.59509648 -32.76949016 0.0
90 1 -54.28857296 -31.4455352 0.0
91 1 -52.340166 -55.664153176 0.0
92 1 -55.04684444 -39.05241104 0.0
93 1 -43.23402176 -53.57290428 0.0
94 1 -52.093349888 -44.648318 0.0
95 1 -57.6756192832 -30.09870312 0.0
96 1 -48.105027488 -36.00613576 0.0
97 1 -57.8637275696 -34.50605032 0.0
98 1 50.01848848 -45.4758628 0.0
99 1 -41.37724 -45.10726104 0.0
100 1 -38.46414224 -32.03006896 0.0
101 1 -53.54319904 -41.75342856 0.0
102 1 56.65787224 -53.747272288 0.0
103 1 -52.12440908 -50.210411176 0.0
104 1 -49.169011992 -31.3679164 0.0
105 1 -51.712749312 -40.26128008 0.0
106 1 -55.180710608 -44.45736408 0.0
107 1 57.41596864 -44.9652128 0.0
108 1 -44.9296132 -37.32974056 0.0
109 1 -49.009047232 -58.2212514344 0.0
110 1 -51.765390032 -34.68649944 0.0
111 1 -49.303496776 -54.689261048 0.0
112 1 -51.30532648 -36.94211344 0.0
113 1 -47.752638136 -39.59655968 0.0
114 1 -44.2187884 -28.45797008 0.0
115 1 -52.10865188 -37.71841816 0.0
116 1 -45.54052568 -39.28293304 0.0
117 1 -55.505075488 -36.70984064 0.0
118 1 -51.142362016 -43.80058064 0.0
119 1 -49.455512904 -47.928488488 0.0
120 1 -48.7737864 -39.14461984 0.0
121 1 50.2526288 -46.763494496 0.0
122 1 -40.27563664 -26.68300904 0.0
123 1 -44.51724144 -39.734406 0.0
124 1 -43.76521448 -43.1770624 0.0
125 1 56.85886408 -54.883763256 0.0
126 1 -55.00587572 -57.8896604192 0.0
127 1 -51.736186688 -52.54891972 0.0
128 1 -46.89967172 -56.741257008 0.0
129 1 -42.31520192 -45.83092504 0.0
130 1 -49.13316728 -30.1785396 0.0
131 1 -47.898643184 -32.81255984 0.0
132 1 -54.960086464 57.47421192 0.0
133 1 -52.429305064 -54.38440008 0.0
134 1 -52.79502384 -52.2056462 0.0
135 1 -47.093356888 -41.99095376 0.0
136 1 -55.877902512 -46.42036104 0.0
137 1 -57.24526564 -51.43599452 0.0
138 1 -45.25981408 -29.29193448 0.0
139 1 -55.493625256 -50.007073264 0.0
140 1 -54.980652528 -33.32799536 0.0
141 1 -38.40356456 -25.1000524 0.0
142 1 -43.14928304 57.84036256 0.0
143 1 -48.453028168 -27.75321472 0.0
144 1 -57.2251641216 -44.81242632 0.0
145 1 -48.21627332 -54.957950488 0.0
146 1 -47.368757728 -40.69862992 0.0
147 1 -50.876578904 -34.03975392 0.0
148 1 -47.504958296 -33.9485956 0.0
149 1 55.98486472 -31.24454336 0.0
150 1 -52.449322544 -49.13929508 0.0
151 1 -44.97828544 -55.039654488 0.0
152 1 -53.814082816 -39.22947528 0.0
153 1 -50.985898856 -32.91165512 0.0
154 1 -46.26675752 -47.881415312 0.0
155 1 -48.905925112 -44.76025248 0.0
156 1 -50.996648768 -45.0521692 0.0
157 1 -53.565247448 -55.232102424 0.0
158 1 -51.381416248 -30.09870312 0.0
159 1 -52.6558936 -41.06069536 0.0
160 1 52.07742928 -51.776163288 0.0
161 1 -56.222121464 -44.00764192 0.0
162 1 -57.3977591528 -50.314408696 0.0
163 1 -54.303524792 -50.541359064 0.0
164 1 -46.4125408 -27.65458632 0.0
165 1 -50.305818104 -55.372516584 0.0
166 1 -54.806354552 -46.931547952 0.0
167 1 -40.58751248 -32.28031664 0.0
168 1 57.72235864 -47.357821064 0.0
169 1 -44.96509608 -43.9736764 0.0
170 1 -51.641911944 -47.19293072 0.0
171 1 -50.184791136 -49.928427328 0.0
172 1 -54.765619272 -34.50756768 0.0
173 1 -50.275202448 -48.735548928 0.0
174 1 -45.7238928 -44.90673608 0.0
175 1 -52.02227908 -32.34532968 0.0
176 1 -54.457093296 -37.06455272 0.0
177 1 -49.998342608 -29.48592312 0.0
178 1 -46.90445724 -37.59224384 0.0
179 1 -44.0098596 -36.6016412 0.0
180 1 -42.31146688 -40.38465312 0.0
181 1 -52.947857008 -45.51169584 0.0
182 1 -50.658440896 -40.73201184 0.0
183 1 55.14973312 -56.45267848 0.0
184 1 -50.821673816 -51.873005872 0.0
185 1 -47.861818024 -45.1887316 0.0
186 1 -53.141658896 -31.8458848 0.0
187 1 -44.66022344 -57.3120714992 0.0
188 1 -47.073771272 -55.542916112 0.0
189 1 -45.55254784 -46.03716928 0.0
190 1 -55.611080592 -29.80176744 0.0
191 1 -52.97039564 -32.99861152 0.0
192 1 -40.03776128 -27.8558116 0.0
193 1 -51.873367704 -45.90912744 0.0
194 1 -39.64359784 -42.4463952 0.0
195 1 -54.025159264 -27.041106 0.0
196 1 -46.2643064 -28.78233496 0.0
197 1 -57.7911043856 -49.20028128 0.0
198 1 -40.84102832 -31.16120528 0.0
199 1 57.52766968 -46.23991192 0.0
200 1 -37.65142088 -40.89798768 0.0
201 1 58.16414384 -56.682780288 0.0
202 1 -46.08981 -42.45946784 0.0
203 1 -43.44353416 -33.49257056 0.0
204 1 -47.935631752 -49.682136456 0.0
205 1 -44.43402008 -46.18038472 0.0
206 1 -40.4510668 -38.86472528 0.0
207 1 -50.19736188 -36.22907096 0.0
208 1 -51.42531464 -48.313010856 0.0
209 1 -50.813153256 -46.23477624 0.0
210 1 -39.41844496 -32.59417672 0.0
211 1 -49.061804672 -50.230475344 0.0
212 1 -51.88688388 -27.91977416 0.0
213 1 -57.4953662528 -36.85574064 0.0
214 1 -52.921851792 -38.60537344 0.0
215 1 -47.26903216 -29.63310704 0.0
216 1 -56.645639984 -41.71234312 0.0
217 1 -48.87434068 -37.80782568 0.0
218 1 -52.178812272 -43.34759032 0.0
219 1 -52.751277184 -28.65931208 0.0
220 1 -51.946516128 -57.9227131888 0.0
221 1 -53.059651424 -44.14140304 0.0
222 1 -44.91899168 -30.48457944 0.0
223 1 -47.037471352 -30.9465572 0.0
224 1 -53.685060528 -36.23245584 0.0
225 1 -49.426472968 -53.507937928 0.0
226 1 -42.71741904 -31.43281272 0.0
227 1 -48.280667744 -53.810102664 0.0
228 1 -53.073879592 -57.5305725064 0.0
229 1 -49.978418504 -51.137798264 0.0
230 1 -44.91642384 -42.89098168 0.0
231 1 -46.00273688 -49.036954984 0.0
232 1 -43.34724016 -46.5841192 0.0
233 1 -53.686741296 -35.04202856 0.0
234 1 -46.49121008 -34.34509344 0.0
235 1 -53.301658672 -49.919614968 0.0
236 1 -51.397640328 -35.80164232 0.0
237 1 -41.17683176 -40.77764936 0.0
238 1 -54.544586608 -41.24464608 0.0
239 1 -45.99690088 -36.96429024 0.0
240 1 -43.60705888 -38.8169868 0.0
241 1 -51.919203648 -33.5867636 0.0
242 1 -55.307106696 -43.35459352 0.0
243 1 -46.2462148 -35.64091888 0.0
244 1 -45.83897872 -38.13265744 0.0
245 1 -46.839806032 -45.71362144 0.0
246 1 -43.4332628 -25.35882064 0.0
247 1 -55.548401952 -55.668448472 0.0
248 1 -56.447962992 -37.30067728 0.0
249 1 -50.48624388 -35.06957448 0.0
250 1 -54.4460866 -42.5426892 0.0
251 1 -52.7437254 -46.771898336 0.0
252 1 -52.910541624 -34.15565688 0.0
253 1 -49.141944624 -49.122580776 0.0
254 1 -50.81632804 -38.1972036 0.0
255 1 -58.0663103032 -53.447535328 0.0
256 1 -50.655732992 -53.004582928 0.0
257 1 -46.03600208 -43.58838368 0.0
258 1 -42.39398792 -33.86724176 0.0
259 1 -49.781908712 -39.91952392 0.0
260 1 -54.914962512 -53.786548568 0.0
261 1 -58.0739846432 -45.56386968 0.0
262 1 -54.824352776 -48.179179704 0.0
263 1 -49.968018752 -44.24481696 0.0
264 1 58.34179168 -44.35733504 0.0
265 1 -51.094191672 -57.183742528 0.0
266 1 58.33747304 -32.23211128 0.0
267 1 -45.57192336 -33.6515432 0.0
268 1 -54.068240616 -32.5351164 0.0
269 1 -48.625120136 -33.63940432 0.0
270 1 -43.41307024 -34.69315248 0.0
271 1 -42.02702024 -28.1540312 0.0
272 1 -57.2168688312 -38.22194824 0.0
273 1 -47.349954136 -52.997451336 0.0
274 1 -46.791075432 -44.48234216 0.0
275 1 -48.6757416 -51.456934088 0.0
276 1 -52.219524208 -31.1122996 0.0
277 1 -56.466649864 -31.75087472 0.0
278 1 -49.91956828 -37.35541896 0.0
279 1 -44.42923456 -40.97817432 0.0
280 1 -47.173531856 -48.866287 0.0
281 1 -49.837374056 -38.70773688 0.0
282 1 -54.722748016 -35.87295824 0.0
283 1 -47.8207676 -38.23058552 0.0
284 1 -51.305139728 -42.55459464 0.0
285 1 -57.546146456 -55.92148576 0.0
286 1 -47.278883328 -35.25609304 0.0
287 1 -54.24807112 -43.81096872 0.0
288 1 -44.6494852 -38.47943256 0.0
289 1 -43.8161044 -30.8018244 0.0
290 1 -51.915515296 57.64637392 0.0
291 1 -56.076046384 -32.89951624 0.0
292 1 -51.433823528 -54.783862608 0.0
293 1 -47.142122504 -54.333253376 0.0
294 1 -49.370190584 -42.38173232 0.0
295 1 -46.24878264 -41.2231696 0.0
296 1 -53.230085968 -30.60970328 0.0
297 1 -58.3488418948 -52.34098304 0.0
298 1 -42.9027704 -36.90184504 0.0
299 1 -55.735737552 -48.875181064 0.0
300 1 -55.22040708 -51.168098776 0.0
301 1 -48.372526384 -29.3743388 0.0
302 1 -42.83413904 -55.804252192 0.0
303 1 50.98609728 -51.39175764 0.0
304 1 -56.143557232 -57.524045524 0.0
305 1 -51.112376648 -31.49794248 0.0
306 1 53.6258368 -47.91834552 0.0
307 1 -43.7624132 -44.30772904 0.0
308 1 -57.6382607128 -35.67885288 0.0
309 1 -40.83659296 -41.98336696 0.0
310 1 -51.257903144 -49.456493352 0.0
311 1 -54.392617168 -55.966446304 0.0
312 1 -44.57875288 -33.00981664 0.0
313 1 -49.859725936 -45.55219768 0.0
314 1 -55.820137784 -47.644625448 0.0
315 1 -53.558442672 -48.74676572 0.0
316 1 -54.829698552 -27.81811104 0.0
317 1 -40.81161488 -29.95992304 0.0
318 1 -55.643318656 55.53339176 0.0
319 1 -47.659600624 -26.03719728 0.0
320 1 -53.802924384 -47.605757688 0.0
321 1 -54.976275528 -45.76381104 0.0
322 1 -53.798372304 -28.24285512 0.0
323 1 -43.8114356 -37.7349924 0.0
324 1 -49.92324496 -33.26765112 0.0
325 1 -49.52733072 -41.01914304 0.0
326 1 -57.5842695424 -42.474408 0.0
327 1 -55.467830136 -31.05522352 0.0
328 1 55.8668608 -48.848685624 0.0
329 1 -49.516907624 -34.31124464 0.0
330 1 -49.074842296 -43.56679048 0.0
331 1 -51.919121944 -51.453887696 0.0
332 1 -57.008814264 -53.830878824 0.0
333 1 -51.148559848 -5.63570848 0.0
334 1 -42.18190768 -10.0279988 0.0
335 1 55.70356952 -4.31969048 0.0
336 1 -54.833491952 -8.94623784 0.0
337 1 -41.69156696 -12.49125768 0.0
338 1 -52.497667968 -14.96280368 0.0
339 1 -42.944206 -22.28978496 0.0
340 1 -49.19905572 -16.37418192 0.0
341 1 -48.453845208 -9.82455584 0.0
342 1 -58.3465033162 -18.51902864 0.0
343 1 -55.636618928 -4.12908672 0.0
344 1 -53.58457628 -22.559058 0.0
345 1 -50.384884232 -16.06569096 0.0
346 1 -47.548915048 -8.97331688 0.0
347 1 57.15743384 -7.04673656 0.0
348 1 -44.47277112 -13.73280832 0.0
349 1 -50.768928048 -19.02757768 0.0
350 1 -52.059197616 -7.38230656 0.0
351 1 -56.206247544 -26.20807536 0.0
352 1 -53.04766428 -12.63365608 0.0
353 1 -40.51771392 -24.33506952 0.0
354 1 -40.81336568 -11.71390248 0.0
355 1 -42.35488672 -19.18713392 0.0
356 1 -38.93335664 -21.59191608 0.0
357 1 -44.11642496 -16.16081776 0.0
358 1 -49.21714732 -24.47279912 0.0
359 1 -46.30795968 -20.99489328 0.0
360 1 -41.24452936 -19.58199768 0.0
361 1 -43.55138344 -8.4610328 0.0
362 1 -56.46715176 0.97332808 0.0
363 1 -48.717398968 -8.6670436 0.0
364 1 -48.649526288 -14.39997984 0.0
365 1 -41.10143064 -20.69072096 0.0
366 1 -51.013970016 -8.00489104 0.0
367 1 -49.172536936 -28.57550712 0.0
368 1 -47.521695944 -20.52159368 0.0
369 1 -55.23680624 -0.57799744 0.0
370 1 -49.051556656 -12.01959216 0.0
371 1 -42.55167664 -24.46299464 0.0
372 1 -49.8633676 -18.37919808 0.0
373 1 -57.5914676648 -4.16818792 0.0
374 1 -48.61644784 -26.63982264 0.0
375 1 -49.188702656 -10.6384444 0.0
376 1 -41.40478592 -25.07635824 0.0
377 1 -47.70649872 -19.32544712 0.0
378 1 -45.02450656 -21.37890208 0.0
379 1 -55.112125936 -7.54874928 0.0
380 1 -44.9500392 -22.56174256 0.0
381 1 -51.50089084 -9.94349352 0.0
382 1 -50.22012228 -23.87869432 0.0
383 1 -49.167704728 -23.09351888 0.0
384 1 -54.16957692 -12.35084352 0.0
385 1 -45.19199976 -15.77179 0.0
386 1 -54.462170616 -11.18901264 0.0
387 1 -50.296142016 -10.236344 0.0
388 1 -38.11584976 -14.913898 0.0
389 1 -54.308333656 -24.50081192 0.0
390 1 -47.42794644 -27.21933744 0.0
391 1 -45.69086104 -7.75569384 0.0
392 1 -50.838399792 -13.51710976 0.0
393 1 -45.75622424 -24.39984912 0.0
394 1 -44.93755016 -12.58848544 0.0
395 1 -55.133380648 -1.80986032 0.0
396 1 -53.748871352 -9.15750104 0.0
397 1 -53.493149504 -23.72298984 0.0
398 1 -49.996871936 -11.44778088 0.0
399 1 -44.43191912 -9.32207624 0.0
400 1 -52.857504056 -27.41846176 0.0
401 1 -47.22006812 -5.88537256 0.0
402 1 -47.770099448 -1.01978264 0.0
403 1 -46.33784 -15.23557832 0.0
404 1 -53.572775888 -15.83633616 0.0
405 1 -42.88689648 -10.8946448 0.0
406 1 -51.501567816 -20.94960592 0.0
407 1 -42.89646752 -16.52498416 0.0
408 1 -48.060242024 -6.64206832 0.0
409 1 58.07963856 0.6227012 0.0
410 1 -54.104248736 -18.9850916 0.0
411 1 -56.281496928 -1.60186528 0.0
412 1 -55.041078472 -19.85944112 0.0
413 1 -44.17058304 -20.5783196 0.0
414 1 -57.5742736416 -12.09709424 0.0
415 1 -52.355176192 0.39498048 0.0
416 1 -55.824304688 -28.67950464 0.0
417 1 -43.20250736 -27.60007808 0.0
418 1 57.7507216 -5.19158888 0.0
419 1 -47.40366868 -22.98928792 0.0
420 1 -56.812888072 -8.940752 0.0
421 1 -47.70953344 -7.85840744 0.0
422 1 -51.527012776 -14.42087272 0.0
423 1 -46.89727896 -11.68005368 0.0
424 1 -36.47873504 -18.02320208 0.0
425 1 -55.76963304 -9.55715032 0.0
426 1 -53.316598832 -17.10695008 0.0
427 1 -49.36333912 -21.8225548 0.0
428 1 57.56852168 -1.44989584 0.0
429 1 -55.11179912 -26.54656336 0.0
430 1 -46.62987344 -14.04059896 0.0
431 1 57.25606224 -24.95088424 0.0
432 1 56.781362 -4.6874752 0.0
433 1 -48.237656424 -23.85278248 0.0
434 1 -57.108633208 -14.54938144 0.0
435 1 -50.080338408 -25.21105312 0.0
436 1 -42.19439672 -20.31499928 0.0
437 1 -45.40851536 -14.54366216 0.0
438 1 -51.142770536 -11.08209712 0.0
439 1 -41.81283904 -22.64694816 0.0
440 1 -49.91787584 -6.97261936 0.0
441 1 -47.752638136 -12.48518824 0.0
442 1 -47.268787048 -3.41744488 0.0
443 1 -56.690927344 -15.5984608 0.0
444 1 -51.507999088 -15.57313256 0.0
445 1 -49.602334992 -2.55546768 0.0
446 1 -54.90036084 -3.22765816 0.0
447 1 -57.2192230736 -18.84012536 0.0
448 1 -53.14909396 -18.24602056 0.0
449 1 -52.693057248 -9.62403088 0.0
450 1 -46.20956472 -3.91899072 0.0
451 1 -47.227970064 -21.74505272 0.0
452 1 -52.32569272 -10.8065212 0.0
453 1 -41.01038904 -10.60202776 0.0
454 1 -43.37583656 -14.05915744 0.0
455 1 -50.508724152 -4.64650648 0.0
456 1 -40.05211784 -21.13670808 0.0
457 1 -50.97845212 -25.99564496 0.0
458 1 -55.391436896 -11.86260376 0.0
459 1 -43.60904312 -17.47601872 0.0
460 1 56.49224656 -2.29389816 0.0
461 1 -39.50423416 -13.20184904 0.0
462 1 -44.9395344 -11.14069056 0.0
463 1 -52.714592088 -13.8354052 0.0
464 1 -49.864266344 -1.39853904 0.0
465 1 -58.124091372 -8.46943664 0.0
466 1 53.33952264 -2.2637844 0.0
467 1 -45.78680488 -11.83319032 0.0
468 1 -44.22123952 -3.6696768 0.0
469 1 -54.853404384 -15.28378368 0.0
470 1 -53.788614512 -3.44697504 0.0
471 1 -44.38908288 -26.10991384 0.0
472 1 -46.03810304 -30.11329312 0.0
473 1 -54.340641752 -30.30833224 0.0
474 1 -55.201778568 -18.55019288 0.0
475 1 -56.778712456 -10.18370328 0.0
476 1 -50.76432928 -12.23937592 0.0
477 1 56.9430192 -16.9249836 0.0
478 1 -48.111843936 -4.13644008 0.0
479 1 -53.029759432 -1.54467248 0.0
480 1 -51.284772088 1.07102272 0.0
481 1 -45.3918244 -28.09228632 0.0
482 1 -42.17292024 -26.98729808 0.0
483 1 -50.778895936 -27.119892 0.0
484 1 -43.23238768 -9.58609688 0.0
485 1 -52.726205728 -3.88782648 0.0
486 1 -48.832648296 -18.83569 0.0
487 1 -50.148141056 -30.79330384 0.0
488 1 -48.879558064 -17.55328736 0.0
489 1 -43.77723664 -12.83546496 0.0
490 1 -48.205628456 -5.30270632 0.0
491 1 -40.93242008 -21.98409528 0.0
492 1 -48.796791912 -7.48747128 0.0
493 1 -51.530502704 -3.08152472 0.0
494 1 -56.30140936 -18.2369164 0.0
495 1 -41.84622096 -11.39665752 0.0
496 1 57.81981984 -3.7572168 0.0
497 1 -52.97022056 -19.50251136 0.0
498 1 -47.481089056 -14.87106176 0.0
499 1 -45.26798448 -10.02414704 0.0
500 1 -53.264740136 -11.5068412 0.0
501 1 -39.17601752 -14.46149128 0.0
502 1 -49.522054976 -9.45396984 0.0
503 1 -44.32815504 -15.08325872 0.0
504 1 -51.128869184 -17.94184824 0.0
505 1 -54.338494104 -5.58400152 0.0
506 1 -40.41056496 -25.58467384 0.0
507 1 -56.520516144 -6.03687512 0.0
508 1 -52.90106396 -8.21743816 0.0
509 1 -55.727812264 -23.00469496 0.0
510 1 -49.89348136 -26.31242304 0.0
511 1 -51.941812312 -26.71207232 0.0
512 1 -55.542530936 1.72885664 0.0
513 1 -49.9541174 -17.23300768 0.0
514 1 -56.247087872 -24.89135704 0.0
515 1 -48.086200552 -16.74791936 0.0
516 1 -56.37931996 -12.47946896 0.0
517 1 -45.65491128 -13.44544368 0.0
518 1 -49.245767064 -4.86979184 0.0
519 1 -34.75127904 -8.37150856 0.0
520 1 -42.9698844 -28.77229704 0.0
521 1 -57.805661704 -10.78411096 0.0
522 1 -43.66588576 -0.47925232 0.0
523 1 -52.507472448 -16.34581896 0.0
524 1 -42.15541224 -3.1992952 0.0
525 1 -46.77559836 -25.20136536 0.0
526 1 -46.35546472 -2.77606848 0.0
527 1 -38.78675632 -16.9366556 0.0
528 1 -43.68899632 -24.22500256 0.0
529 1 -58.3493066038 -0.59795656 0.0
530 1 -54.47042272 -4.43757768 0.0
531 1 -52.143072608 -17.53823048 0.0
532 1 -56.607029008 -3.56497896 0.0
533 1 -50.760267424 -2.30066792 0.0
534 1 -52.818321152 -2.68911208 0.0
535 1 -55.558206432 -5.34542584 0.0
536 1 -51.122461256 -6.78458344 0.0
537 1 -41.78914488 -16.96081664 0.0
538 1 -53.17634808 -7.13591064 0.0
539 1 -45.5406424 -19.08161904 0.0
540 1 -57.7527980488 -9.57430816 0.0
541 1 -48.626065568 -19.91429952 0.0
542 1 -51.459817072 -23.5173292 0.0
543 1 -39.73510632 -31.30745544 0.0
544 1 -39.11590672 -20.47759024 0.0
545 1 -47.501690136 -2.243942 0.0
546 1 -45.88706736 -6.42555272 0.0
547 1 -37.3451476 -18.70169544 0.0
548 1 -55.381060488 -24.19162064 0.0
549 1 -57.3119862936 -1.12856568 0.0
550 1 -48.86097624 -25.54907424 0.0
551 1 -49.757175744 -8.20903432 0.0
552 1 -40.19871816 -8.64580056 0.0
553 1 -48.161403248 -11.32230688 0.0
554 1 -58.1583708688 -2.01552096 0.0
555 1 -47.43068936 -28.50209024 0.0
556 1 -48.484881056 -21.09095384 0.0
557 1 -42.7667916 -12.156388 0.0
558 1 -56.542050984 -4.89535352 0.0
559 1 -42.72570616 -6.5001368 0.0
560 1 -47.483108312 -10.41644296 0.0
561 1 53.49405992 -9.09272144 0.0
562 1 -45.3743164 -20.25605568 0.0
563 1 -41.91858736 -21.453136 0.0
564 1 -40.27493632 -7.25484832 0.0
565 1 57.61159136 -2.60028816 0.0
566 1 -54.021832744 -8.05799864 0.0
567 1 -43.59748784 -18.59629728 0.0
568 1 -54.720156832 -10.07433664 0.0
569 1 -41.3206308 -26.29374784 0.0
570 1 -47.878520656 -24.95380224 0.0
571 1 -54.772272312 -22.24764904 0.0
572 1 -52.165401144 -0.857892 0.0
573 1 -47.076817664 -17.30420688 0.0
574 1 -57.4940928376 -24.55695424 0.0
575 1 -46.705262888 -12.95428592 0.0
576 1 -54.229267528 -1.10802296 0.0
577 1 -52.167105256 -11.97383792 0.0
578 1 -48.315461976 -22.33997456 0.0
579 1 -53.990318344 -13.49656704 0.0
580 1 -45.82870736 1.52564712 0.0
581 1 -42.43659072 -13.311916 0.0
582 1 -50.468012216 -21.52305128 0.0
583 1 58.09119384 -6.23424864 0.0
584 1 -53.828661144 -14.66750208 0.0
585 1 -55.865004952 -2.690396 0.0
586 1 56.31354824 -13.18842624 0.0
587 1 -43.32798136 -19.85512248 0.0
588 1 -52.489812712 -22.94901952 0.0
589 1 -42.2853216 -14.47421376 0.0
590 1 -44.5123392 -24.99465424 0.0
591 1 -58.0252166928 -19.80108112 0.0
592 1 -51.844444488 -13.03844104 0.0
593 1 -55.808920992 -8.43908944 0.0
594 1 -57.12492732 -2.45112 0.0
595 1 -44.81125912 -23.76372512 0.0
596 1 -53.64515396 -10.36403568 0.0
597 1 -43.23203752 -15.35299864 0.0
598 1 -53.598687728 -29.42581232 0.0
599 1 -44.10486968 -10.4330172 0.0
600 1 -56.921414328 3.26150696 0.0
601 1 -50.272261104 -28.2631644 0.0
602 1 -55.108040736 -25.39628776 0.0
603 1 -51.329615912 -16.70449952 0.0
604 1 -51.906597888 -2.03571352 0.0
605 1 -54.140023416 -25.92211136 0.0
606 1 -49.886046296 -12.91705224 0.0
607 1 -54.462053896 1.2716644 0.0
608 1 -42.57840552 -17.89749464 0.0
609 1 -43.97355968 -21.81018248 0.0
610 1 -46.11397104 -5.26558936 0.0
611 1 -47.208010944 -15.9346144 0.0
612 1 -46.60816352 -8.35796904 0.0
613 1 -45.430342 -2.0186724 0.0
614 1 -42.89366624 -23.39675744 0.0
615 1 -46.270726 -10.76695312 0.0
616 1 -46.56987936 -26.44011472 0.0
617 1 -47.71700352 -13.59227744 0.0
618 1 -49.561693088 -27.37095672 0.0
619 1 -51.63091692 -22.13933288 0.0
620 1 -53.27252536 -0.29483472 0.0
621 1 -51.560779872 -4.28093944 0.0
622 1 -53.837018296 -21.46760928 0.0
623 1 -45.48905216 -8.93328192 0.0
624 1 -53.16765244 -25.18922648 0.0
625 1 -50.001610768 -5.70947552 0.0
626 1 -50.241178568 -22.67426064 0.0
627 1 -48.784851456 -13.30969832 0.0
628 1 -49.648159264 -19.58818384 0.0
629 1 -49.291416256 -3.73457312 0.0
630 1 -52.713775048 -21.78917288 0.0
631 1 -45.91753128 -31.35285952 0.0
632 1 -44.64201512 -18.085764 0.0
633 1 -51.90882724 -8.79508544 0.0
634 1 -50.714746624 -9.10567736 0.0
635 1 -50.563594224 -14.95801816 0.0
636 1 -57.7547927936 -5.53147752 0.0
637 1 -49.489151608 -15.18282088 0.0
638 1 -46.42351248 -9.65122664 0.0
639 1 -50.41551156 -3.5576256 0.0
640 1 -48.924028384 -0.59503856 0.0
641 1 -51.103260816 -0.10399752 0.0
642 1 -43.86734448 -11.70047968 0.0
643 1 -50.665922648 -20.20633296 0.0
644 1 -44.81791216 -17.00925544 0.0
645 1 -44.0046072 -4.7761824 0.0
646 1 -45.2926124 -3.28718536 0.0
647 1 -49.698804072 -14.03394592 0.0
648 1 -46.47451912 -19.8995928 0.0
649 1 -48.348120232 -2.93504112 0.0
650 1 -46.17174744 -22.1166892 0.0
651 1 -40.75092048 -23.2249456 0.0
652 1 -53.277334224 -5.93836344 0.0
653 1 -52.137108216 -25.60638376 0.0
654 1 -46.18248568 -16.49755496 0.0
655 1 -42.10242136 -15.56974768 0.0
656 1 -53.011702848 -26.3081044 0.0
657 1 -51.110765912 -1.24096704 0.0
658 1 -53.88069492 -20.18824136 0.0
659 1 -49.040339864 -6.2048352 0.0
660 1 -51.774062328 -19.85488904 0.0
661 1 -43.04201736 -21.10029144 0.0
662 1 -46.862064536 -24.10011216 0.0
663 1 -49.662095632 -20.735308 0.0
664 1 -54.9981722 -14.18311408 0.0
665 1 -44.41791272 -19.42967808 0.0
666 1 -47.14956924 -4.76065864 0.0
667 1 -55.091338104 -12.97681288 0.0
668 1 -54.2246104 -6.66856376 0.0
669 1 -47.887613144 -18.12358128 0.0
670 1 -53.418355328 -4.78703736 0.0
671 1 -52.292299128 -24.46369496 0.0
672 1 -44.62462384 -8.14565536 0.0
673 1 -52.14897864 -6.235766 0.0
674 1 -51.027579568 -24.65978456 0.0
675 1 55.44363408 -3.22870864 0.0
676 1 -45.11309704 -4.38528712 0.0
677 1 -48.36077268 -15.54056768 0.0
678 1 -54.335120896 0.0484388 0.0
679 1 -45.873878 -23.230198 0.0
680 1 -46.60361144 -18.60295032 0.0
681 1 -52.743398584 -20.70040872 0.0
682 1 -45.81470096 -17.63779264 0.0
683 1 -52.356530144 -5.05771104 0.0
684 1 54.44322696 16.04409776 0.0
685 1 54.46201888 -2.56060336 0.0
686 1 -56.67882348 22.15252224 0.0
687 1 57.14331072 -0.30510608 0.0
688 1 -48.036419472 2.48531896 0.0
689 1 -55.010941368 10.41982784 0.0
690 1 -54.220186712 14.72527848 0.0
691 1 57.59186568 17.47391776 0.0
692 1 -46.890427496 7.38417408 0.0
693 1 -51.63727816 10.24871632 0.0
694 1 -45.99503336 28.51387896 0.0
695 1 -54.676468536 9.16006888 0.0
696 1 -57.9840728928 9.19776944 0.0
697 1 -51.849253352 12.48367088 0.0
698 1 -50.552412448 17.80470224 0.0
699 1 57.74045024 2.87166216 0.0
700 1 -56.79134156 23.38380152 0.0
701 1 -53.971759864 24.5012788 0.0
702 1 -53.3763478 0.86407816 0.0
703 1 -54.229547656 19.962038 0.0
704 1 -45.45205192 24.93991256 0.0
705 1 -55.725582912 22.96734456 0.0
706 1 56.7165824 14.2509284 0.0
707 1 -54.314998368 8.106204 0.0
708 1 -48.551983384 4.97845816 0.0
709 1 -55.247299368 26.17224232 0.0
710 1 -54.696707784 2.50621184 0.0
711 1 -49.479382144 22.88260584 0.0
712 1 -51.881246304 11.377282 0.0
713 1 -53.960321304 5.8313312 0.0
714 1 -57.4498209416 18.90945704 0.0
715 1 -58.23648106 24.83241344 0.0
716 1 -49.443502416 16.27286896 0.0
717 1 57.95007936 15.11792456 0.0
718 1 55.75982856 8.04130768 0.0
719 1 57.81106584 16.38176872 0.0
720 1 -55.688582672 2.99923712 0.0
721 1 -54.021529272 10.95837392 0.0
722 1 56.64328224 8.91320608 0.0
723 1 -49.463998448 28.66514808 0.0
724 1 57.87374448 21.8925868 0.0
725 1 -49.781418488 25.3644232 0.0
726 1 -55.6500534 16.2345848 0.0
727 1 57.43300976 25.52514664 0.0
728 1 -52.303119072 21.63043368 0.0
729 1 -57.8922726128 2.44318304 0.0
730 1 -50.938814008 25.65727368 0.0
731 1 -55.352440744 14.91541536 0.0
732 1 -46.6453972 19.62751848 0.0
733 1 -55.343791792 19.31050696 0.0
734 1 54.66616216 8.53620048 0.0
735 1 -57.4583368328 26.92975512 0.0
736 1 -54.101015592 12.32925032 0.0
737 1 -57.8184752256 21.39442584 0.0
738 1 -45.68525848 7.11770232 0.0
739 1 -53.554777664 2.04411736 0.0
740 1 -54.417361808 21.32672824 0.0
741 1 -57.110313976 4.45275128 0.0
742 1 -47.564532184 25.83352088 0.0
743 1 -53.102511008 15.38089472 0.0
744 1 -47.156245624 22.01304184 0.0
745 1 -48.83471424 26.08248464 0.0
746 1 -55.732119232 9.49668936 0.0
747 1 -53.154393048 19.6416416 0.0
748 1 56.10590336 26.94271104 0.0
749 1 55.75667712 21.3124884 0.0
750 1 -54.865566608 23.78041608 0.0
751 1 -53.797205104 17.74365768 0.0
752 1 -55.164918392 4.8864828 0.0
753 1 -49.851859008 6.49698536 0.0
754 1 -47.360108776 23.44636344 0.0
755 1 -45.98989768 21.52305128 0.0
756 1 55.56829104 9.27188664 0.0
757 1 -57.5154070768 1.33516008 0.0
758 1 56.6144524 15.43878784 0.0
759 1 56.32195208 25.77084224 0.0
760 1 -56.231097232 5.23244088 0.0
761 1 -49.600327408 18.52439776 0.0
762 1 -51.518001992 15.83528568 0.0
763 1 -55.702449008 8.41341104 0.0
764 1 -54.599783496 15.79606776 0.0
765 1 55.58334792 15.8960968 0.0
766 1 57.33158008 26.65989848 0.0
767 1 56.54628792 16.54669408 0.0
768 1 -58.0570053848 3.59170784 0.0
769 1 -57.4995179832 0.17344592 0.0
770 1 -50.346156536 22.13022872 0.0
771 1 -56.372211712 26.48073328 0.0
772 1 -57.2765314264 12.39589744 0.0
773 1 57.84164648 8.4662852 0.0
774 1 55.83838112 1.19276168 0.0
775 1 -52.976476752 11.86960696 0.0
776 1 57.13514032 19.68996368 0.0
777 1 -51.21667764 21.28004024 0.0
778 1 -49.037842056 15.2197044 0.0
779 1 -49.945725232 -0.16667616 0.0
780 1 -56.48092472 14.45063632 0.0
781 1 -51.628174 18.14027224 0.0
782 1 -47.675066024 5.61971784 0.0
783 1 55.78795808 23.83959312 0.0
784 1 -55.44188328 7.19777224 0.0
785 1 58.14745288 12.88915616 0.0
786 1 -45.43897928 13.74109544 0.0
787 1 -57.130681616 17.75579656 0.0
788 1 -52.8706584 10.72551752 0.0
789 1 -53.571888816 3.31204672 0.0
790 1 -57.5539281784 28.09555448 0.0
791 1 54.89528352 0.40606888 0.0
792 1 -55.139940312 24.87489952 0.0
793 1 -56.983147536 9.92960384 0.0
794 1 -57.7910938808 7.93731016 0.0
795 1 -47.860639152 14.79612752 0.0
796 1 -52.885586888 24.0583264 0.0
797 1 -45.76439464 27.3638368 0.0
798 1 58.11161984 5.77507216 0.0
799 1 -50.559765808 4.36439424 0.0
800 1 -49.309099336 2.94846392 0.0
801 1 -51.5269194 22.55975832 0.0
802 1 -48.913360176 7.21808152 0.0
803 1 -47.26331288 17.69230088 0.0
804 1 -51.832095512 5.99508936 0.0
805 1 -54.297128536 26.90314296 0.0
806 1 -50.985828824 6.83068784 0.0
807 1 -53.535051984 21.97335704 0.0
808 1 -49.155740928 21.75112216 0.0
809 1 -55.005105368 18.19443032 0.0
810 1 -48.380334952 17.0195268 0.0
811 1 -49.481704872 10.64264632 0.0
812 1 -47.959524336 0.1785816 0.0
813 1 -48.640515504 19.33326736 0.0
814 1 -57.139295552 24.44688728 0.0
815 1 -49.09873488 8.32937264 0.0
816 1 55.92627128 13.454898 0.0
817 1 -52.710308464 18.63213032 0.0
818 1 -54.640857264 22.5946576 0.0
819 1 -52.075001504 14.85798912 0.0
820 1 -58.0854091968 23.62377784 0.0
821 1 -52.55183772 9.63161768 0.0
822 1 -51.384497656 9.13649144 0.0
823 1 -57.446094072 5.77950752 0.0
824 1 -51.115177928 7.95155 0.0
825 1 -50.007131624 7.6031408 0.0
826 1 -51.80173664 19.35952936 0.0
827 1 -58.3101415346 11.6521576 0.0
828 1 -46.55774048 5.1946236 0.0
829 1 -48.06506256 21.37271592 0.0
830 1 -48.89558372 20.56092832 0.0
831 1 56.9436028 1.03098776 0.0
832 1 -50.479964344 16.69516192 0.0
833 1 -52.594895728 16.358308 0.0
834 1 -51.734459232 4.8894008 0.0